<?xml version="1.0"?>
<VTKFile type= "UnstructuredGrid"  version= "0.1"  byte_order= "BigEndian">                         
 <UnstructuredGrid>                                                                                 
  <Piece NumberOfPoints="118" NumberOfCells="118">                                                  
   <PointData Scalars="Pressure" Vectors="Velocity">                                                
    <DataArray type="Float32" Name="Pressures" format="ascii">                                      
   1701.2710    
   2554.1597    
   10419.949    
   32031.949    
   16372.828    
   487.78732    
   0.0000000    
   0.0000000    
   0.0000000    
   1260.7445    
   2250.2283    
   1297.1389    
   5088.5752    
   1251.5878    
   932.67188    
   0.0000000    
   0.0000000    
   0.0000000    
   0.0000000    
   0.0000000    
   0.0000000    
   0.0000000    
   0.0000000    
   0.0000000    
   0.0000000    
   0.0000000    
   0.0000000    
   0.0000000    
   0.0000000    
   0.0000000    
   0.0000000    
   0.0000000    
   0.0000000    
   0.0000000    
   0.0000000    
   0.0000000    
   31793.113    
   81133.758    
   220520.59    
   525249.63    
   42672.441    
   35338.781    
   2462.9509    
   25.728762    
   0.0000000    
   0.0000000    
   0.0000000    
   0.0000000    
   0.0000000    
   0.0000000    
   0.0000000    
   10428.154    
   45768.945    
   29471.453    
   38785.078    
   276.57324    
   2107.7832    
   483.10260    
   13.799721    
   0.0000000    
   0.0000000    
   0.0000000    
   0.0000000    
   0.0000000    
   0.0000000    
   0.0000000    
   0.0000000    
   852.22919    
   528.54718    
   3889.5828    
   13012.675    
   8695.0381    
   34037.031    
   6847.5532    
   150370.14    
   0.0000000    
   3.5083482    
   0.0000000    
   183.18608    
   0.0000000    
   12.864128    
   0.0000000    
   4.6778059    
   0.0000000    
   0.0000000    
   0.0000000    
   0.0000000    
   0.0000000    
   0.0000000    
   0.0000000    
   0.0000000    
  -15497.999    
   14219.684    
   1870.5901    
   211.50369    
  -26341.424    
   33052.156    
   6021.9233    
   7543.5962    
   17039.896    
   9609.8350    
   16115.586    
  -9043.9688    
   14793.617    
  -9113.0918    
  -9015.4277    
   3562.4326    
  -38419.320    
  -4952.3315    
   3700.5391    
  -19177.148    
  -2569.5215    
  -4936.6680    
   21616.588    
  -49688.020    
   2110.3726    
   23196.486    
   31938.295    
    </DataArray>                                                                                    
    <DataArray type="Float32" Name="FM" format="ascii">                                             
  1.82237057E-03
  1.26048806E-03
  2.25994107E-03
  8.09770660E-04
 -6.22405321E-04
  1.11015739E-04
   0.0000000    
   0.0000000    
   0.0000000    
  5.20055299E-04
  7.23176228E-04
 -3.39762555E-05
  7.41160999E-04
 -1.85850193E-04
 -7.81503331E-05
   0.0000000    
   0.0000000    
   0.0000000    
   0.0000000    
   0.0000000    
   0.0000000    
   0.0000000    
   0.0000000    
   0.0000000    
   0.0000000    
   0.0000000    
   0.0000000    
   0.0000000    
   0.0000000    
   0.0000000    
   0.0000000    
   0.0000000    
   0.0000000    
   0.0000000    
   0.0000000    
   0.0000000    
  8.76211189E-03
  3.69399739E-03
  1.58984289E-02
  1.77113991E-02
  1.68143143E-03
  3.60783353E-03
  1.41072716E-03
 -5.04055279E-05
   0.0000000    
   0.0000000    
   0.0000000    
   0.0000000    
   0.0000000    
   0.0000000    
   0.0000000    
  2.70885788E-03
  6.67822221E-03
  5.55716176E-03
  8.35315697E-03
  7.40775466E-03
  1.42148044E-03
  1.51129300E-03
 -1.32002198E-04
 -1.61886406E-40
  -0.0000000    
   0.0000000    
   0.0000000    
   0.0000000    
   0.0000000    
   0.0000000    
   0.0000000    
 -1.44499631E-04
 -6.20305946E-04
 -2.93500561E-05
  5.39798290E-04
  1.74865272E-04
  4.03866172E-04
  9.98282485E-05
  7.13363348E-04
  2.46628530E-43
 -7.40848282E-06
  -0.0000000    
 -6.26082647E-06
   0.0000000    
  3.42675366E-06
   0.0000000    
  6.18056902E-06
   0.0000000    
   0.0000000    
   0.0000000    
   0.0000000    
   0.0000000    
  -0.0000000    
   0.0000000    
   0.0000000    
   125.76674    
   125.61256    
   125.46333    
   125.31018    
   125.15567    
   125.00000    
   125.75494    
   125.60624    
   125.46037    
   125.31038    
   125.15567    
   125.00000    
   125.75644    
   125.61089    
   125.46005    
   125.31018    
   125.15553    
   125.00000    
   125.76566    
   125.61221    
   125.46202    
   125.30890    
   125.15567    
   125.00012    
   125.61399    
   125.31004    
   125.00000    
    </DataArray>                                                                                    
    <DataArray type="Float32" Name="por" format="ascii">                                            
  0.69999999    
  0.69999999    
  0.69999999    
  0.69999999    
  0.69999999    
  0.69999999    
  0.69999999    
  0.69999999    
  0.69999999    
  0.69999999    
  0.69999999    
  0.69999999    
  0.69999999    
  0.69999999    
  0.69999999    
  0.69999999    
  0.69999999    
  0.69999999    
  0.69999999    
  0.69999999    
  0.69999999    
  0.69999999    
  0.69999999    
  0.69999999    
  0.69999999    
  0.69999999    
  0.69999999    
  0.69999999    
  0.69999999    
  0.69999999    
  0.69999999    
  0.69999999    
  0.69999999    
  0.69999999    
  0.69999999    
  0.69999999    
  0.69999999    
  0.69999999    
  0.69999999    
  0.69999999    
  0.69999999    
  0.69999999    
  0.69999999    
  0.69999999    
  0.69999999    
  0.69999999    
  0.69999999    
  0.69999999    
  0.69999999    
  0.69999999    
  0.69999999    
  0.69999999    
  0.69999999    
  0.69999999    
  0.69999999    
  0.69999999    
  0.69999999    
  0.69999999    
  0.69999999    
  0.69999999    
  0.69999999    
  0.69999999    
  0.69999999    
  0.69999999    
  0.69999999    
  0.69999999    
  0.69999999    
  0.69999999    
  0.69999999    
  0.69999999    
  0.69999999    
  0.69999999    
  0.69999999    
  0.69999999    
  0.69999999    
  0.69999999    
  0.69999999    
  0.69999999    
  0.69999999    
  0.69999999    
  0.69999999    
  0.69999999    
  0.69999999    
  0.69999999    
  0.69999999    
  0.69999999    
  0.69999999    
  0.69999999    
  0.69999999    
  0.69999999    
  0.69999999    
   1.0000000    
   1.0000000    
   1.0000000    
   1.0000000    
   1.0000000    
   1.0000000    
   1.0000000    
   1.0000000    
   1.0000000    
   1.0000000    
   1.0000000    
   1.0000000    
   1.0000000    
   1.0000000    
   1.0000000    
   1.0000000    
   1.0000000    
   1.0000000    
   1.0000000    
   1.0000000    
   1.0000000    
   1.0000000    
   1.0000000    
   1.0000000    
   1.0000000    
   1.0000000    
   1.0000000    
    </DataArray>                                                                                    
    <DataArray type="Float32" Name="Pcap" format="ascii">                                           
   999.99792    
   999.99854    
   999.99738    
   999.99908    
   1000.0007    
   999.99988    
   1000.0000    
   1000.0000    
   1000.0000    
   999.99939    
   999.99915    
   1000.0001    
   999.99915    
   1000.0002    
   1000.0001    
   1000.0000    
   1000.0000    
   1000.0000    
   1000.0000    
   1000.0000    
   1000.0000    
   1000.0000    
   1000.0000    
   1000.0000    
   1000.0000    
   1000.0000    
   1000.0000    
   1000.0000    
   1000.0000    
   1000.0000    
   1000.0000    
   1000.0000    
   1000.0000    
   1000.0000    
   1000.0000    
   1000.0000    
   999.98981    
   999.99561    
   999.98029    
   999.97644    
   999.99805    
   999.99579    
   999.99841    
   1000.0001    
   1000.0000    
   1000.0000    
   1000.0000    
   1000.0000    
   1000.0000    
   1000.0000    
   1000.0000    
   999.99689    
   999.99219    
   999.99353    
   999.99030    
   999.99152    
   999.99835    
   999.99829    
   1000.0001    
   1000.0000    
   1000.0000    
   1000.0000    
   1000.0000    
   1000.0000    
   1000.0000    
   1000.0000    
   1000.0000    
   1000.0002    
   1000.0007    
   1000.0001    
   999.99939    
   999.99982    
   999.99951    
   999.99988    
   999.99915    
   1000.0000    
   1000.0000    
   1000.0000    
   1000.0000    
   1000.0000    
   1000.0000    
   1000.0000    
   1000.0000    
   1000.0000    
   1000.0000    
   1000.0000    
   1000.0000    
   1000.0000    
   1000.0000    
   1000.0000    
   1000.0000    
   0.0000000    
   0.0000000    
   0.0000000    
   0.0000000    
   0.0000000    
   0.0000000    
   0.0000000    
   0.0000000    
   0.0000000    
   0.0000000    
   0.0000000    
   0.0000000    
   0.0000000    
   0.0000000    
   0.0000000    
   0.0000000    
   0.0000000    
   0.0000000    
   0.0000000    
   0.0000000    
   0.0000000    
   0.0000000    
   0.0000000    
   0.0000000    
   0.0000000    
   0.0000000    
   0.0000000    
    </DataArray>                                                                                    
    <DataArray type="Float32" Name="Density" format="ascii">                                        
   1000.8649    
   1001.2968    
   1005.2281    
   1015.5789    
   1008.1433    
   1000.2484    
   1000.0000    
   1000.0000    
   1000.0000    
   1000.6414    
   1001.1429    
   1000.6598    
   1002.5736    
   1000.6367    
   1000.4747    
   1000.0000    
   1000.0000    
   1000.0000    
   1000.0000    
   1000.0000    
   1000.0000    
   1000.0000    
   1000.0000    
   1000.0000    
   1000.0000    
   1000.0000    
   1000.0000    
   1000.0000    
   1000.0000    
   1000.0000    
   1000.0000    
   1000.0000    
   1000.0000    
   1000.0000    
   1000.0000    
   1000.0000    
   1015.4679    
   1036.9861    
   1086.4502    
   1162.7803    
   1020.4510    
   1017.1080    
   1001.2506    
   1000.0131    
   1000.0000    
   1000.0000    
   1000.0000    
   1000.0000    
   1000.0000    
   1000.0000    
   1000.0000    
   1005.2322    
   1021.8430    
   1014.3853    
   1018.6873    
   1000.1409    
   1001.0708    
   1000.2461    
   1000.0071    
   1000.0000    
   1000.0000    
   1000.0000    
   1000.0000    
   1000.0000    
   1000.0000    
   1000.0000    
   1000.0000    
   1000.4338    
   1000.2692    
   1001.9708    
   1006.5040    
   1004.3739    
   1016.5077    
   1003.4541    
   1063.2786    
   1000.0000    
   1000.0018    
   1000.0000    
   1000.0934    
   1000.0000    
   1000.0066    
   1000.0000    
   1000.0024    
   1000.0000    
   1000.0000    
   1000.0000    
   1000.0000    
   1000.0000    
   1000.0000    
   1000.0000    
   1000.0000    
   991.90704    
   1007.0948    
   1000.9507    
   1000.1077    
   985.99969    
   1016.0521    
   1003.0414    
   1003.8013    
   1008.4668    
   1004.8275    
   1008.0184    
   995.32538    
   1007.3749    
   995.28912    
   995.34033    
   1001.8058    
   979.15967    
   997.45654    
   1001.8755    
   989.92633    
   998.68518    
   997.46466    
   1010.6699    
   972.50854    
   1001.0722    
   1011.4238    
   1015.5353    
    </DataArray>                                                                                    
    <DataArray type="Float32" Name="u-Velocity" format="ascii">                                     
   0.0000000    
   0.0000000    
   0.0000000    
   0.0000000    
   0.0000000    
   0.0000000    
   0.0000000    
   0.0000000    
   0.0000000    
   0.0000000    
   0.0000000    
   0.0000000    
   0.0000000    
   0.0000000    
   0.0000000    
   0.0000000    
   0.0000000    
   0.0000000    
   0.0000000    
   0.0000000    
   0.0000000    
   0.0000000    
   0.0000000    
   0.0000000    
   0.0000000    
   0.0000000    
   0.0000000    
   0.0000000    
   0.0000000    
   0.0000000    
   0.0000000    
   0.0000000    
   0.0000000    
   0.0000000    
   0.0000000    
   0.0000000    
   0.0000000    
   0.0000000    
   0.0000000    
   0.0000000    
   0.0000000    
   0.0000000    
   0.0000000    
   0.0000000    
   0.0000000    
   0.0000000    
   0.0000000    
   0.0000000    
   0.0000000    
   0.0000000    
   0.0000000    
   0.0000000    
   0.0000000    
   0.0000000    
   0.0000000    
   0.0000000    
   0.0000000    
   0.0000000    
   0.0000000    
   0.0000000    
   0.0000000    
   0.0000000    
   0.0000000    
   0.0000000    
   0.0000000    
   0.0000000    
   0.0000000    
   0.0000000    
   0.0000000    
   0.0000000    
   0.0000000    
   0.0000000    
   0.0000000    
   0.0000000    
   0.0000000    
   0.0000000    
   0.0000000    
   0.0000000    
   0.0000000    
   0.0000000    
   0.0000000    
   0.0000000    
   0.0000000    
   0.0000000    
   0.0000000    
   0.0000000    
   0.0000000    
   0.0000000    
   0.0000000    
   0.0000000    
   0.0000000    
   1.8463721    
  0.62190187    
 -0.46722329    
  9.53518450E-02
 -0.17632023    
 -3.88080589E-02
  0.90299690    
   1.4492824    
 -0.21487167    
   4.1793523    
  0.44234589    
 -0.86495101    
   1.1466355    
   1.5775619    
  0.31998065    
  0.34129441    
   1.0560410    
  3.04531828E-02
  -1.0495220    
   2.1362863    
 -0.32483816    
  -1.9631455    
 -0.50725263    
  -2.9165928    
   1.2405589    
 -0.54651994    
  -1.1415491    
    </DataArray>                                                                                    
    <DataArray type="Float32" Name="w-Velocity" format="ascii">                                     
   0.0000000    
   0.0000000    
   0.0000000    
   0.0000000    
   0.0000000    
   0.0000000    
   0.0000000    
   0.0000000    
   0.0000000    
   0.0000000    
   0.0000000    
   0.0000000    
   0.0000000    
   0.0000000    
   0.0000000    
   0.0000000    
   0.0000000    
   0.0000000    
   0.0000000    
   0.0000000    
   0.0000000    
   0.0000000    
   0.0000000    
   0.0000000    
   0.0000000    
   0.0000000    
   0.0000000    
   0.0000000    
   0.0000000    
   0.0000000    
   0.0000000    
   0.0000000    
   0.0000000    
   0.0000000    
   0.0000000    
   0.0000000    
   0.0000000    
   0.0000000    
   0.0000000    
   0.0000000    
   0.0000000    
   0.0000000    
   0.0000000    
   0.0000000    
   0.0000000    
   0.0000000    
   0.0000000    
   0.0000000    
   0.0000000    
   0.0000000    
   0.0000000    
   0.0000000    
   0.0000000    
   0.0000000    
   0.0000000    
   0.0000000    
   0.0000000    
   0.0000000    
   0.0000000    
   0.0000000    
   0.0000000    
   0.0000000    
   0.0000000    
   0.0000000    
   0.0000000    
   0.0000000    
   0.0000000    
   0.0000000    
   0.0000000    
   0.0000000    
   0.0000000    
   0.0000000    
   0.0000000    
   0.0000000    
   0.0000000    
   0.0000000    
   0.0000000    
   0.0000000    
   0.0000000    
   0.0000000    
   0.0000000    
   0.0000000    
   0.0000000    
   0.0000000    
   0.0000000    
   0.0000000    
   0.0000000    
   0.0000000    
   0.0000000    
   0.0000000    
   0.0000000    
  -1.6546936    
  0.21786848    
 -0.28620559    
  -2.4464841    
  -1.1960824    
  -1.2463591    
  -1.3741778    
  0.49638158    
 -0.55421650    
   1.8386424    
  -1.1030577    
  -1.8898374    
  -1.2827306    
   1.4752450    
 -2.05202065E-02
  0.74158239    
  0.58953983    
  -2.0891917    
  -2.0684557    
   1.1697171    
  0.76985657    
  0.34670192    
  -1.0075121    
  -3.6396961    
 -0.61999846    
  0.65646851    
  -1.7767572    
    </DataArray>                                                                                    
    <DataArray type="Float32" Name="Scalarplot" format="ascii">                                     
           1
           1
           1
           1
           1
           1
           1
           1
           1
           1
           1
           1
           1
           1
           1
           1
           1
           1
           1
           1
           1
           1
           1
           1
           1
           1
           1
           1
           1
           1
           1
           1
           1
           1
           1
           1
           1
           1
           1
           1
           1
           1
           1
           1
           1
           1
           1
           1
           1
           1
           1
           1
           1
           1
           1
           1
           1
           1
           1
           1
           1
           1
           1
           1
           1
           1
           1
           1
           1
           1
           1
           1
           1
           1
           1
           1
           1
           1
           1
           1
           1
           1
           1
           1
           1
           1
           1
           1
           1
           1
           1
           2
           2
           2
           2
           2
           2
           2
           2
           2
           2
           2
           2
           2
           2
           2
           2
           2
           2
           2
           2
           2
           2
           2
           2
           2
           2
           2
    </DataArray>                                                                                    
   </PointData>                                                                                     
   <Points>                                                                                         
    <DataArray type="Float32" NumberOfComponents="3" format="ascii">                                
   0.0000000       0.0000000       0.0000000    
   0.0000000       0.0000000      0.50000000    
   0.0000000       0.0000000       1.0000000    
   0.0000000       0.0000000       1.5000000    
   0.0000000       0.0000000       2.0000000    
   0.0000000       0.0000000       2.5000000    
   0.0000000       0.0000000       3.0000000    
   0.0000000       0.0000000       3.5000000    
   0.0000000       0.0000000       4.0000000    
 -0.25000000       0.0000000     -0.25000000    
 -0.25000000       0.0000000      0.25000000    
 -0.25000000       0.0000000      0.75000000    
 -0.25000000       0.0000000       1.2500000    
 -0.25000000       0.0000000       1.7500000    
 -0.25000000       0.0000000       2.2500000    
 -0.25000000       0.0000000       2.7500000    
 -0.25000000       0.0000000       3.2500000    
 -0.25000000       0.0000000       3.7500000    
   8.0000000       0.0000000       0.0000000    
   8.0000000       0.0000000      0.50000000    
   8.0000000       0.0000000       1.0000000    
   8.0000000       0.0000000       1.5000000    
   8.0000000       0.0000000       2.0000000    
   8.0000000       0.0000000       2.5000000    
   8.0000000       0.0000000       3.0000000    
   8.0000000       0.0000000       3.5000000    
   8.0000000       0.0000000       4.0000000    
   8.2500000       0.0000000     -0.25000000    
   8.2500000       0.0000000      0.25000000    
   8.2500000       0.0000000      0.75000000    
   8.2500000       0.0000000       1.2500000    
   8.2500000       0.0000000       1.7500000    
   8.2500000       0.0000000       2.2500000    
   8.2500000       0.0000000       2.7500000    
   8.2500000       0.0000000       3.2500000    
   8.2500000       0.0000000       3.7500000    
  0.50000000       0.0000000       0.0000000    
   1.0000000       0.0000000       0.0000000    
   1.5000000       0.0000000       0.0000000    
   2.0000000       0.0000000       0.0000000    
   2.5000000       0.0000000       0.0000000    
   3.0000000       0.0000000       0.0000000    
   3.5000000       0.0000000       0.0000000    
   4.0000000       0.0000000       0.0000000    
   4.5000000       0.0000000       0.0000000    
   5.0000000       0.0000000       0.0000000    
   5.5000000       0.0000000       0.0000000    
   6.0000000       0.0000000       0.0000000    
   6.5000000       0.0000000       0.0000000    
   7.0000000       0.0000000       0.0000000    
   7.5000000       0.0000000       0.0000000    
  0.25000000       0.0000000     -0.25000000    
  0.75000000       0.0000000     -0.25000000    
   1.2500000       0.0000000     -0.25000000    
   1.7500000       0.0000000     -0.25000000    
   2.2500000       0.0000000     -0.25000000    
   2.7500000       0.0000000     -0.25000000    
   3.2500000       0.0000000     -0.25000000    
   3.7500000       0.0000000     -0.25000000    
   4.2500000       0.0000000     -0.25000000    
   4.7500000       0.0000000     -0.25000000    
   5.2500000       0.0000000     -0.25000000    
   5.7500000       0.0000000     -0.25000000    
   6.2500000       0.0000000     -0.25000000    
   6.7500000       0.0000000     -0.25000000    
   7.2500000       0.0000000     -0.25000000    
   7.7500000       0.0000000     -0.25000000    
   4.0000000       0.0000000      0.50000000    
   3.7500000       0.0000000      0.25000000    
   4.0000000       0.0000000       1.0000000    
   3.7500000       0.0000000      0.75000000    
   4.0000000       0.0000000       1.5000000    
   3.7500000       0.0000000       1.2500000    
   4.0000000       0.0000000       2.0000000    
   3.7500000       0.0000000       1.7500000    
   4.5000000       0.0000000      0.50000000    
   4.2500000       0.0000000      0.25000000    
   4.5000000       0.0000000       1.0000000    
   4.2500000       0.0000000      0.75000000    
   4.5000000       0.0000000       1.5000000    
   4.2500000       0.0000000       1.2500000    
   4.5000000       0.0000000       2.0000000    
   4.2500000       0.0000000       1.7500000    
   5.0000000       0.0000000      0.50000000    
   4.7500000       0.0000000      0.25000000    
   5.0000000       0.0000000       1.0000000    
   4.7500000       0.0000000      0.75000000    
   5.0000000       0.0000000       1.5000000    
   4.7500000       0.0000000       1.2500000    
   5.0000000       0.0000000       2.0000000    
   4.7500000       0.0000000       1.7500000    
   2.7270167       0.0000000       1.6218927    
   1.5898896       0.0000000      0.91797924    
   1.5536991       0.0000000      0.85291338    
   1.1579950       0.0000000       1.0300227    
   1.2678324       0.0000000      0.75628018    
   2.6798892       0.0000000       2.3698597    
   2.9625726       0.0000000       1.7833052    
   1.6360227       0.0000000       1.0365674    
   1.7647281       0.0000000       1.3652458    
   2.1658542       0.0000000       1.2504734    
   1.5604191       0.0000000       1.4790627    
   1.0376005       0.0000000       1.2030425    
   2.9853842       0.0000000       1.8996396    
   2.8142407       0.0000000       1.9001518    
   2.5294356       0.0000000       1.3255062    
   2.7393000       0.0000000       1.4309149    
   2.6189842       0.0000000      0.97494113    
   2.4187133       0.0000000       2.0132616    
   1.3879595       0.0000000       1.3444507    
   2.8368444       0.0000000       1.9763379    
   2.3868694       0.0000000      0.92655730    
   2.2494035       0.0000000       1.0401362    
   2.6466365       0.0000000       2.4646108    
   2.7327046       0.0000000      0.85930896    
   1.7245026       0.0000000       1.6007152    
   3.0165901       0.0000000       2.3859739    
   1.3538997       0.0000000       1.8258734    
    </DataArray>                                                                                    
   </Points>                                                                                        
   <Cells>                                                                                          
    <DataArray type="Int32" Name="connectivity" format="ascii">                                     
           0
           1
           2
           3
           4
           5
           6
           7
           8
           9
          10
          11
          12
          13
          14
          15
          16
          17
          18
          19
          20
          21
          22
          23
          24
          25
          26
          27
          28
          29
          30
          31
          32
          33
          34
          35
          36
          37
          38
          39
          40
          41
          42
          43
          44
          45
          46
          47
          48
          49
          50
          51
          52
          53
          54
          55
          56
          57
          58
          59
          60
          61
          62
          63
          64
          65
          66
          67
          68
          69
          70
          71
          72
          73
          74
          75
          76
          77
          78
          79
          80
          81
          82
          83
          84
          85
          86
          87
          88
          89
          90
          91
          92
          93
          94
          95
          96
          97
          98
          99
         100
         101
         102
         103
         104
         105
         106
         107
         108
         109
         110
         111
         112
         113
         114
         115
         116
         117
    </DataArray>                                                                                    
    <DataArray type="Int32" Name="offsets" format="ascii">                                          
           1
           2
           3
           4
           5
           6
           7
           8
           9
          10
          11
          12
          13
          14
          15
          16
          17
          18
          19
          20
          21
          22
          23
          24
          25
          26
          27
          28
          29
          30
          31
          32
          33
          34
          35
          36
          37
          38
          39
          40
          41
          42
          43
          44
          45
          46
          47
          48
          49
          50
          51
          52
          53
          54
          55
          56
          57
          58
          59
          60
          61
          62
          63
          64
          65
          66
          67
          68
          69
          70
          71
          72
          73
          74
          75
          76
          77
          78
          79
          80
          81
          82
          83
          84
          85
          86
          87
          88
          89
          90
          91
          92
          93
          94
          95
          96
          97
          98
          99
         100
         101
         102
         103
         104
         105
         106
         107
         108
         109
         110
         111
         112
         113
         114
         115
         116
         117
         118
    </DataArray>                                                                                    
    <DataArray type="Int32" Name="types" format="ascii">                                            
           1
           1
           1
           1
           1
           1
           1
           1
           1
           1
           1
           1
           1
           1
           1
           1
           1
           1
           1
           1
           1
           1
           1
           1
           1
           1
           1
           1
           1
           1
           1
           1
           1
           1
           1
           1
           1
           1
           1
           1
           1
           1
           1
           1
           1
           1
           1
           1
           1
           1
           1
           1
           1
           1
           1
           1
           1
           1
           1
           1
           1
           1
           1
           1
           1
           1
           1
           1
           1
           1
           1
           1
           1
           1
           1
           1
           1
           1
           1
           1
           1
           1
           1
           1
           1
           1
           1
           1
           1
           1
           1
           1
           1
           1
           1
           1
           1
           1
           1
           1
           1
           1
           1
           1
           1
           1
           1
           1
           1
           1
           1
           1
           1
           1
           1
           1
           1
           1
    </DataArray>                                                                                    
   </Cells>                                                                                         
  </Piece>                                                                                          
 </UnstructuredGrid>                                                                                
</VTKFile>                                                                                          
