<?xml version="1.0"?>
<VTKFile type= "UnstructuredGrid"  version= "0.1"  byte_order= "BigEndian">                         
 <UnstructuredGrid>                                                                                 
  <Piece NumberOfPoints="118" NumberOfCells="118">                                                  
   <PointData Scalars="Pressure" Vectors="Velocity">                                                
    <DataArray type="Float32" Name="Pressures" format="ascii">                                      
  -6198.1318    
   19385.764    
   3429.1106    
   92264.219    
   12211.653    
   484.03955    
   0.0000000    
   0.0000000    
   0.0000000    
   1273.1886    
  -834.03375    
   7816.0005    
   10849.774    
   313.09277    
   929.38812    
   0.0000000    
   0.0000000    
   0.0000000    
   0.0000000    
   0.0000000    
   0.0000000    
   0.0000000    
   0.0000000    
   0.0000000    
   0.0000000    
   0.0000000    
   0.0000000    
   0.0000000    
   0.0000000    
   0.0000000    
   0.0000000    
   0.0000000    
   0.0000000    
   0.0000000    
   0.0000000    
   0.0000000    
  -50819.895    
  -23098.998    
   45810.484    
   25891.313    
   4125.3877    
   66953.328    
   24833.016    
   26.430483    
   0.0000000    
   0.0000000    
   0.0000000    
   0.0000000    
   0.0000000    
   0.0000000    
   0.0000000    
  -17119.311    
   124304.38    
  -146.73218    
   636.56189    
   37073.141    
   9257.3262    
   8544.0527    
   2.5727851    
   0.0000000    
   0.0000000    
   0.0000000    
   0.0000000    
   0.0000000    
   0.0000000    
   0.0000000    
   0.0000000    
   1877.4117    
   21662.705    
   2498.0645    
   71506.039    
   2258.7063    
   70088.148    
   61.752430    
   30466.346    
   0.0000000    
   3.5083482    
   0.0000000    
   183.65413    
   0.0000000    
   8.8878889    
   0.0000000    
   0.0000000    
   0.0000000    
   0.0000000    
   0.0000000    
   0.0000000    
   0.0000000    
   0.0000000    
   0.0000000    
   0.0000000    
  -5773.6006    
   13157.875    
   16505.205    
   16148.467    
   9478.8945    
   4259.7012    
  -25000.436    
   17065.977    
   15449.315    
   12973.041    
   21121.393    
   886.23315    
  -21055.525    
   5022.5498    
   6636.7783    
   14436.934    
   9890.6602    
   5912.6123    
  -3868.2449    
   16556.059    
   5874.7544    
   6320.9844    
   11154.362    
   12979.605    
   14792.640    
   9442.7988    
   1024.1613    
    </DataArray>                                                                                    
    <DataArray type="Float32" Name="FM" format="ascii">                                             
  1.65009545E-03
  9.35955497E-04
  1.90454558E-03
  6.64297375E-04
 -3.78650700E-04
  7.11528628E-05
   0.0000000    
   0.0000000    
   0.0000000    
  5.17334789E-04
  6.41646155E-04
 -7.64427241E-05
  6.04905246E-04
 -1.31400913E-04
 -6.27067493E-05
   0.0000000    
   0.0000000    
   0.0000000    
   0.0000000    
   0.0000000    
   0.0000000    
   0.0000000    
   0.0000000    
   0.0000000    
   0.0000000    
   0.0000000    
   0.0000000    
   0.0000000    
   0.0000000    
   0.0000000    
   0.0000000    
   0.0000000    
   0.0000000    
   0.0000000    
   0.0000000    
   0.0000000    
  7.96594284E-03
  2.60906154E-03
  1.30220084E-02
  1.40090883E-02
  7.66897690E-04
  2.34195846E-03
  9.02354426E-04
 -2.73638689E-05
   0.0000000    
   0.0000000    
   0.0000000    
   0.0000000    
   0.0000000    
   0.0000000    
   0.0000000    
  2.52110185E-03
  5.94177982E-03
  4.51619551E-03
  6.78875297E-03
  5.87715209E-03
  8.24656920E-04
  1.03233079E-03
 -6.18815320E-05
 -3.11088259E-42
   0.0000000    
   0.0000000    
   0.0000000    
   0.0000000    
   0.0000000    
   0.0000000    
   0.0000000    
 -9.10963427E-05
 -3.80479556E-04
 -1.87183286E-05
  3.26138164E-04
  1.40849792E-04
  3.84291488E-04
  3.15631769E-05
  4.24673897E-04
   0.0000000    
 -7.40848282E-06
   0.0000000    
 -5.86161741E-06
   0.0000000    
  1.23001082E-05
   0.0000000    
   0.0000000    
   0.0000000    
   0.0000000    
   0.0000000    
   0.0000000    
   0.0000000    
   0.0000000    
   0.0000000    
   0.0000000    
   125.76698    
   125.61256    
   125.46356    
   125.31018    
   125.15567    
   125.00000    
   125.75644    
   125.60654    
   125.46065    
   125.31018    
   125.15567    
   125.00000    
   125.75771    
   125.61089    
   125.46046    
   125.31018    
   125.15567    
   125.00000    
   125.76630    
   125.61221    
   125.46202    
   125.30896    
   125.15567    
   125.00000    
   125.61399    
   125.31018    
   125.00000    
    </DataArray>                                                                                    
    <DataArray type="Float32" Name="por" format="ascii">                                            
  0.69999999    
  0.69999999    
  0.69999999    
  0.69999999    
  0.69999999    
  0.69999999    
  0.69999999    
  0.69999999    
  0.69999999    
  0.69999999    
  0.69999999    
  0.69999999    
  0.69999999    
  0.69999999    
  0.69999999    
  0.69999999    
  0.69999999    
  0.69999999    
  0.69999999    
  0.69999999    
  0.69999999    
  0.69999999    
  0.69999999    
  0.69999999    
  0.69999999    
  0.69999999    
  0.69999999    
  0.69999999    
  0.69999999    
  0.69999999    
  0.69999999    
  0.69999999    
  0.69999999    
  0.69999999    
  0.69999999    
  0.69999999    
  0.69999999    
  0.69999999    
  0.69999999    
  0.69999999    
  0.69999999    
  0.69999999    
  0.69999999    
  0.69999999    
  0.69999999    
  0.69999999    
  0.69999999    
  0.69999999    
  0.69999999    
  0.69999999    
  0.69999999    
  0.69999999    
  0.69999999    
  0.69999999    
  0.69999999    
  0.69999999    
  0.69999999    
  0.69999999    
  0.69999999    
  0.69999999    
  0.69999999    
  0.69999999    
  0.69999999    
  0.69999999    
  0.69999999    
  0.69999999    
  0.69999999    
  0.69999999    
  0.69999999    
  0.69999999    
  0.69999999    
  0.69999999    
  0.69999999    
  0.69999999    
  0.69999999    
  0.69999999    
  0.69999999    
  0.69999999    
  0.69999999    
  0.69999999    
  0.69999999    
  0.69999999    
  0.69999999    
  0.69999999    
  0.69999999    
  0.69999999    
  0.69999999    
  0.69999999    
  0.69999999    
  0.69999999    
  0.69999999    
   1.0000000    
   1.0000000    
   1.0000000    
   1.0000000    
   1.0000000    
   1.0000000    
   1.0000000    
   1.0000000    
   1.0000000    
   1.0000000    
   1.0000000    
   1.0000000    
   1.0000000    
   1.0000000    
   1.0000000    
   1.0000000    
   1.0000000    
   1.0000000    
   1.0000000    
   1.0000000    
   1.0000000    
   1.0000000    
   1.0000000    
   1.0000000    
   1.0000000    
   1.0000000    
   1.0000000    
    </DataArray>                                                                                    
    <DataArray type="Float32" Name="Pcap" format="ascii">                                           
   999.99811    
   999.99890    
   999.99780    
   999.99921    
   1000.0004    
   999.99994    
   1000.0000    
   1000.0000    
   1000.0000    
   999.99939    
   999.99927    
   1000.0001    
   999.99933    
   1000.0001    
   1000.0001    
   1000.0000    
   1000.0000    
   1000.0000    
   1000.0000    
   1000.0000    
   1000.0000    
   1000.0000    
   1000.0000    
   1000.0000    
   1000.0000    
   1000.0000    
   1000.0000    
   1000.0000    
   1000.0000    
   1000.0000    
   1000.0000    
   1000.0000    
   1000.0000    
   1000.0000    
   1000.0000    
   1000.0000    
   999.99115    
   999.99707    
   999.98480    
   999.98383    
   999.99915    
   999.99725    
   999.99896    
   1000.0001    
   1000.0000    
   1000.0000    
   1000.0000    
   1000.0000    
   1000.0000    
   1000.0000    
   1000.0000    
   999.99713    
   999.99286    
   999.99481    
   999.99225    
   999.99316    
   999.99902    
   999.99884    
   1000.0001    
   1000.0000    
   1000.0000    
   1000.0000    
   1000.0000    
   1000.0000    
   1000.0000    
   1000.0000    
   1000.0000    
   1000.0001    
   1000.0004    
   1000.0000    
   999.99963    
   999.99982    
   999.99957    
   999.99994    
   999.99951    
   1000.0000    
   1000.0000    
   1000.0000    
   1000.0000    
   1000.0000    
   1000.0000    
   1000.0000    
   1000.0000    
   1000.0000    
   1000.0000    
   1000.0000    
   1000.0000    
   1000.0000    
   1000.0000    
   1000.0000    
   1000.0000    
   0.0000000    
   0.0000000    
   0.0000000    
   0.0000000    
   0.0000000    
   0.0000000    
   0.0000000    
   0.0000000    
   0.0000000    
   0.0000000    
   0.0000000    
   0.0000000    
   0.0000000    
   0.0000000    
   0.0000000    
   0.0000000    
   0.0000000    
   0.0000000    
   0.0000000    
   0.0000000    
   0.0000000    
   0.0000000    
   0.0000000    
   0.0000000    
   0.0000000    
   0.0000000    
   0.0000000    
    </DataArray>                                                                                    
    <DataArray type="Float32" Name="Density" format="ascii">                                        
   996.81055    
   1009.5997    
   1001.7386    
   1041.4893    
   1006.1110    
   1000.2466    
   1000.0000    
   1000.0000    
   1000.0000    
   1000.6477    
   999.57434    
   1003.9369    
   1005.4403    
   1000.1595    
   1000.4730    
   1000.0000    
   1000.0000    
   1000.0000    
   1000.0000    
   1000.0000    
   1000.0000    
   1000.0000    
   1000.0000    
   1000.0000    
   1000.0000    
   1000.0000    
   1000.0000    
   1000.0000    
   1000.0000    
   1000.0000    
   1000.0000    
   1000.0000    
   1000.0000    
   1000.0000    
   1000.0000    
   1000.0000    
   971.82520    
   987.78845    
   1021.8617    
   1012.7020    
   1002.0895    
   1031.0736    
   1012.2012    
   1000.0134    
   1000.0000    
   1000.0000    
   1000.0000    
   1000.0000    
   1000.0000    
   1000.0000    
   1000.0000    
   991.03711    
   1053.8370    
   999.92517    
   1000.3241    
   1017.9047    
   1004.6528    
   1004.2990    
   1000.0013    
   1000.0000    
   1000.0000    
   1000.0000    
   1000.0000    
   1000.0000    
   1000.0000    
   1000.0000    
   1000.0000    
   1000.9541    
   1010.6920    
   1001.2684    
   1032.9940    
   1001.1472    
   1032.3982    
   1000.0315    
   1014.8500    
   1000.0000    
   1000.0018    
   1000.0000    
   1000.0936    
   1000.0000    
   1000.0045    
   1000.0000    
   1000.0000    
   1000.0000    
   1000.0000    
   1000.0000    
   1000.0000    
   1000.0000    
   1000.0000    
   1000.0000    
   1000.0000    
   997.03094    
   1006.5753    
   1008.2075    
   1008.0343    
   1004.7626    
   1002.1571    
   986.74182    
   1008.4795    
   1007.6944    
   1006.4847    
   1010.4329    
   1000.4511    
   988.90582    
   1002.5405    
   1003.3488    
   1007.2009    
   1004.9665    
   1002.9867    
   998.01666    
   1008.2322    
   1002.9677    
   1003.1910    
   1005.5905    
   1006.4879    
   1007.3745    
   1004.7448    
   1000.5212    
    </DataArray>                                                                                    
    <DataArray type="Float32" Name="u-Velocity" format="ascii">                                     
   0.0000000    
   0.0000000    
   0.0000000    
   0.0000000    
   0.0000000    
   0.0000000    
   0.0000000    
   0.0000000    
   0.0000000    
   0.0000000    
   0.0000000    
   0.0000000    
   0.0000000    
   0.0000000    
   0.0000000    
   0.0000000    
   0.0000000    
   0.0000000    
   0.0000000    
   0.0000000    
   0.0000000    
   0.0000000    
   0.0000000    
   0.0000000    
   0.0000000    
   0.0000000    
   0.0000000    
   0.0000000    
   0.0000000    
   0.0000000    
   0.0000000    
   0.0000000    
   0.0000000    
   0.0000000    
   0.0000000    
   0.0000000    
   0.0000000    
   0.0000000    
   0.0000000    
   0.0000000    
   0.0000000    
   0.0000000    
   0.0000000    
   0.0000000    
   0.0000000    
   0.0000000    
   0.0000000    
   0.0000000    
   0.0000000    
   0.0000000    
   0.0000000    
   0.0000000    
   0.0000000    
   0.0000000    
   0.0000000    
   0.0000000    
   0.0000000    
   0.0000000    
   0.0000000    
   0.0000000    
   0.0000000    
   0.0000000    
   0.0000000    
   0.0000000    
   0.0000000    
   0.0000000    
   0.0000000    
   0.0000000    
   0.0000000    
   0.0000000    
   0.0000000    
   0.0000000    
   0.0000000    
   0.0000000    
   0.0000000    
   0.0000000    
   0.0000000    
   0.0000000    
   0.0000000    
   0.0000000    
   0.0000000    
   0.0000000    
   0.0000000    
   0.0000000    
   0.0000000    
   0.0000000    
   0.0000000    
   0.0000000    
   0.0000000    
   0.0000000    
   0.0000000    
   2.4326875    
 -5.31508625E-02
 -0.26171458    
  0.79222113    
 -0.37470633    
   1.1033961    
 -0.11623722    
  0.24209249    
 -0.16741610    
 -0.76734442    
 -0.64982933    
 -0.62286663    
  0.12931204    
   1.2689737    
 -0.30183440    
  0.92699313    
   1.7920430    
  0.65076137    
 -9.83810425E-02
 -0.69405055    
   1.0885410    
  0.53880095    
 -0.91688621    
  0.47641993    
  -1.7245507    
 -0.44488496    
 -0.97200894    
    </DataArray>                                                                                    
    <DataArray type="Float32" Name="w-Velocity" format="ascii">                                     
   0.0000000    
   0.0000000    
   0.0000000    
   0.0000000    
   0.0000000    
   0.0000000    
   0.0000000    
   0.0000000    
   0.0000000    
   0.0000000    
   0.0000000    
   0.0000000    
   0.0000000    
   0.0000000    
   0.0000000    
   0.0000000    
   0.0000000    
   0.0000000    
   0.0000000    
   0.0000000    
   0.0000000    
   0.0000000    
   0.0000000    
   0.0000000    
   0.0000000    
   0.0000000    
   0.0000000    
   0.0000000    
   0.0000000    
   0.0000000    
   0.0000000    
   0.0000000    
   0.0000000    
   0.0000000    
   0.0000000    
   0.0000000    
   0.0000000    
   0.0000000    
   0.0000000    
   0.0000000    
   0.0000000    
   0.0000000    
   0.0000000    
   0.0000000    
   0.0000000    
   0.0000000    
   0.0000000    
   0.0000000    
   0.0000000    
   0.0000000    
   0.0000000    
   0.0000000    
   0.0000000    
   0.0000000    
   0.0000000    
   0.0000000    
   0.0000000    
   0.0000000    
   0.0000000    
   0.0000000    
   0.0000000    
   0.0000000    
   0.0000000    
   0.0000000    
   0.0000000    
   0.0000000    
   0.0000000    
   0.0000000    
   0.0000000    
   0.0000000    
   0.0000000    
   0.0000000    
   0.0000000    
   0.0000000    
   0.0000000    
   0.0000000    
   0.0000000    
   0.0000000    
   0.0000000    
   0.0000000    
   0.0000000    
   0.0000000    
   0.0000000    
   0.0000000    
   0.0000000    
   0.0000000    
   0.0000000    
   0.0000000    
   0.0000000    
   0.0000000    
   0.0000000    
   1.0514261    
 -0.11673446    
 -3.03328726E-02
  0.87064588    
  0.74265730    
 -0.93709135    
  0.34465125    
  0.65010810    
  0.61126643    
 -8.02797228E-02
  0.74844027    
   1.1399559    
  0.42130160    
 -0.44538403    
  0.62994063    
 -0.62490702    
  -1.2298504    
 -0.97056341    
 -0.13147090    
 -0.25378293    
 -8.77001435E-02
   1.2029191    
 -0.33586553    
 -0.62141448    
 -0.86208844    
  1.14359530E-02
  -1.0130056    
    </DataArray>                                                                                    
    <DataArray type="Float32" Name="Scalarplot" format="ascii">                                     
           1
           1
           1
           1
           1
           1
           1
           1
           1
           1
           1
           1
           1
           1
           1
           1
           1
           1
           1
           1
           1
           1
           1
           1
           1
           1
           1
           1
           1
           1
           1
           1
           1
           1
           1
           1
           1
           1
           1
           1
           1
           1
           1
           1
           1
           1
           1
           1
           1
           1
           1
           1
           1
           1
           1
           1
           1
           1
           1
           1
           1
           1
           1
           1
           1
           1
           1
           1
           1
           1
           1
           1
           1
           1
           1
           1
           1
           1
           1
           1
           1
           1
           1
           1
           1
           1
           1
           1
           1
           1
           1
           2
           2
           2
           2
           2
           2
           2
           2
           2
           2
           2
           2
           2
           2
           2
           2
           2
           2
           2
           2
           2
           2
           2
           2
           2
           2
           2
    </DataArray>                                                                                    
   </PointData>                                                                                     
   <Points>                                                                                         
    <DataArray type="Float32" NumberOfComponents="3" format="ascii">                                
   0.0000000       0.0000000       0.0000000    
   0.0000000       0.0000000      0.50000000    
   0.0000000       0.0000000       1.0000000    
   0.0000000       0.0000000       1.5000000    
   0.0000000       0.0000000       2.0000000    
   0.0000000       0.0000000       2.5000000    
   0.0000000       0.0000000       3.0000000    
   0.0000000       0.0000000       3.5000000    
   0.0000000       0.0000000       4.0000000    
 -0.25000000       0.0000000     -0.25000000    
 -0.25000000       0.0000000      0.25000000    
 -0.25000000       0.0000000      0.75000000    
 -0.25000000       0.0000000       1.2500000    
 -0.25000000       0.0000000       1.7500000    
 -0.25000000       0.0000000       2.2500000    
 -0.25000000       0.0000000       2.7500000    
 -0.25000000       0.0000000       3.2500000    
 -0.25000000       0.0000000       3.7500000    
   8.0000000       0.0000000       0.0000000    
   8.0000000       0.0000000      0.50000000    
   8.0000000       0.0000000       1.0000000    
   8.0000000       0.0000000       1.5000000    
   8.0000000       0.0000000       2.0000000    
   8.0000000       0.0000000       2.5000000    
   8.0000000       0.0000000       3.0000000    
   8.0000000       0.0000000       3.5000000    
   8.0000000       0.0000000       4.0000000    
   8.2500000       0.0000000     -0.25000000    
   8.2500000       0.0000000      0.25000000    
   8.2500000       0.0000000      0.75000000    
   8.2500000       0.0000000       1.2500000    
   8.2500000       0.0000000       1.7500000    
   8.2500000       0.0000000       2.2500000    
   8.2500000       0.0000000       2.7500000    
   8.2500000       0.0000000       3.2500000    
   8.2500000       0.0000000       3.7500000    
  0.50000000       0.0000000       0.0000000    
   1.0000000       0.0000000       0.0000000    
   1.5000000       0.0000000       0.0000000    
   2.0000000       0.0000000       0.0000000    
   2.5000000       0.0000000       0.0000000    
   3.0000000       0.0000000       0.0000000    
   3.5000000       0.0000000       0.0000000    
   4.0000000       0.0000000       0.0000000    
   4.5000000       0.0000000       0.0000000    
   5.0000000       0.0000000       0.0000000    
   5.5000000       0.0000000       0.0000000    
   6.0000000       0.0000000       0.0000000    
   6.5000000       0.0000000       0.0000000    
   7.0000000       0.0000000       0.0000000    
   7.5000000       0.0000000       0.0000000    
  0.25000000       0.0000000     -0.25000000    
  0.75000000       0.0000000     -0.25000000    
   1.2500000       0.0000000     -0.25000000    
   1.7500000       0.0000000     -0.25000000    
   2.2500000       0.0000000     -0.25000000    
   2.7500000       0.0000000     -0.25000000    
   3.2500000       0.0000000     -0.25000000    
   3.7500000       0.0000000     -0.25000000    
   4.2500000       0.0000000     -0.25000000    
   4.7500000       0.0000000     -0.25000000    
   5.2500000       0.0000000     -0.25000000    
   5.7500000       0.0000000     -0.25000000    
   6.2500000       0.0000000     -0.25000000    
   6.7500000       0.0000000     -0.25000000    
   7.2500000       0.0000000     -0.25000000    
   7.7500000       0.0000000     -0.25000000    
   4.0000000       0.0000000      0.50000000    
   3.7500000       0.0000000      0.25000000    
   4.0000000       0.0000000       1.0000000    
   3.7500000       0.0000000      0.75000000    
   4.0000000       0.0000000       1.5000000    
   3.7500000       0.0000000       1.2500000    
   4.0000000       0.0000000       2.0000000    
   3.7500000       0.0000000       1.7500000    
   4.5000000       0.0000000      0.50000000    
   4.2500000       0.0000000      0.25000000    
   4.5000000       0.0000000       1.0000000    
   4.2500000       0.0000000      0.75000000    
   4.5000000       0.0000000       1.5000000    
   4.2500000       0.0000000       1.2500000    
   4.5000000       0.0000000       2.0000000    
   4.2500000       0.0000000       1.7500000    
   5.0000000       0.0000000      0.50000000    
   4.7500000       0.0000000      0.25000000    
   5.0000000       0.0000000       1.0000000    
   4.7500000       0.0000000      0.75000000    
   5.0000000       0.0000000       1.5000000    
   4.7500000       0.0000000       1.2500000    
   5.0000000       0.0000000       2.0000000    
   4.7500000       0.0000000       1.7500000    
  0.87708604       0.0000000      0.29765093    
  0.80922174       0.0000000      0.66223395    
  0.75697923       0.0000000      0.87647235    
  0.90911847       0.0000000       1.2331115    
  0.92621064       0.0000000       1.2763276    
   2.0426106       0.0000000       1.2650437    
   1.3537436       0.0000000      0.24534127    
   1.0328075       0.0000000      0.57099539    
   1.3568125       0.0000000      0.61949372    
  0.83955669       0.0000000      0.95238364    
   1.4568360       0.0000000      0.87680972    
   1.1362675       0.0000000       1.3558080    
   1.9600549       0.0000000      0.31013885    
   2.0587971       0.0000000      0.49315357    
   2.5174708       0.0000000      0.57277179    
   2.1280329       0.0000000      0.76815200    
   2.7164807       0.0000000      0.80265927    
   2.0617239       0.0000000       1.2667539    
   1.7065752       0.0000000      0.49324566    
   2.1545925       0.0000000      0.70677167    
   2.9104562       0.0000000      0.73064661    
   2.7873445       0.0000000      0.62986016    
   2.7093711       0.0000000       1.3292699    
   2.8828726       0.0000000       1.3007267    
   1.6674469       0.0000000       1.0490181    
   2.9019766       0.0000000       1.3013433    
   1.9358082       0.0000000       1.5860286    
    </DataArray>                                                                                    
   </Points>                                                                                        
   <Cells>                                                                                          
    <DataArray type="Int32" Name="connectivity" format="ascii">                                     
           0
           1
           2
           3
           4
           5
           6
           7
           8
           9
          10
          11
          12
          13
          14
          15
          16
          17
          18
          19
          20
          21
          22
          23
          24
          25
          26
          27
          28
          29
          30
          31
          32
          33
          34
          35
          36
          37
          38
          39
          40
          41
          42
          43
          44
          45
          46
          47
          48
          49
          50
          51
          52
          53
          54
          55
          56
          57
          58
          59
          60
          61
          62
          63
          64
          65
          66
          67
          68
          69
          70
          71
          72
          73
          74
          75
          76
          77
          78
          79
          80
          81
          82
          83
          84
          85
          86
          87
          88
          89
          90
          91
          92
          93
          94
          95
          96
          97
          98
          99
         100
         101
         102
         103
         104
         105
         106
         107
         108
         109
         110
         111
         112
         113
         114
         115
         116
         117
    </DataArray>                                                                                    
    <DataArray type="Int32" Name="offsets" format="ascii">                                          
           1
           2
           3
           4
           5
           6
           7
           8
           9
          10
          11
          12
          13
          14
          15
          16
          17
          18
          19
          20
          21
          22
          23
          24
          25
          26
          27
          28
          29
          30
          31
          32
          33
          34
          35
          36
          37
          38
          39
          40
          41
          42
          43
          44
          45
          46
          47
          48
          49
          50
          51
          52
          53
          54
          55
          56
          57
          58
          59
          60
          61
          62
          63
          64
          65
          66
          67
          68
          69
          70
          71
          72
          73
          74
          75
          76
          77
          78
          79
          80
          81
          82
          83
          84
          85
          86
          87
          88
          89
          90
          91
          92
          93
          94
          95
          96
          97
          98
          99
         100
         101
         102
         103
         104
         105
         106
         107
         108
         109
         110
         111
         112
         113
         114
         115
         116
         117
         118
    </DataArray>                                                                                    
    <DataArray type="Int32" Name="types" format="ascii">                                            
           1
           1
           1
           1
           1
           1
           1
           1
           1
           1
           1
           1
           1
           1
           1
           1
           1
           1
           1
           1
           1
           1
           1
           1
           1
           1
           1
           1
           1
           1
           1
           1
           1
           1
           1
           1
           1
           1
           1
           1
           1
           1
           1
           1
           1
           1
           1
           1
           1
           1
           1
           1
           1
           1
           1
           1
           1
           1
           1
           1
           1
           1
           1
           1
           1
           1
           1
           1
           1
           1
           1
           1
           1
           1
           1
           1
           1
           1
           1
           1
           1
           1
           1
           1
           1
           1
           1
           1
           1
           1
           1
           1
           1
           1
           1
           1
           1
           1
           1
           1
           1
           1
           1
           1
           1
           1
           1
           1
           1
           1
           1
           1
           1
           1
           1
           1
           1
           1
    </DataArray>                                                                                    
   </Cells>                                                                                         
  </Piece>                                                                                          
 </UnstructuredGrid>                                                                                
</VTKFile>                                                                                          
