<?xml version="1.0"?>
<VTKFile type= "UnstructuredGrid"  version= "0.1"  byte_order= "BigEndian">                         
 <UnstructuredGrid>                                                                                 
  <Piece NumberOfPoints="2923" NumberOfCells="2923">                                                
   <PointData Scalars="Pressure" Vectors="Velocity">                                                
    <DataArray type="Float32" Name="Pressures" format="ascii">                                      
   10783.574    
   29842.400    
   46457.063    
   28435.076    
   40126.223    
   37053.887    
   37626.668    
   38075.617    
   38876.832    
   39553.773    
   36789.668    
   37006.543    
   35391.094    
   33279.973    
   31050.674    
   29586.902    
   27310.984    
   26196.713    
   23738.232    
   21732.518    
   19954.918    
   18344.059    
   16989.711    
   15689.642    
   14048.179    
   12341.225    
   11310.629    
   8957.8027    
   7383.3208    
   5351.3799    
   4644.7021    
   2890.4597    
   2063.7673    
  -227.02701    
   370.45538    
  -1595.0756    
  -1689.7899    
  -644.89581    
   85.848396    
   52.161324    
   4.4439139    
   42.570503    
  0.93555588    
   0.0000000    
   0.0000000    
   0.0000000    
   0.0000000    
   0.0000000    
   0.0000000    
   0.0000000    
   0.0000000    
   0.0000000    
   0.0000000    
   0.0000000    
   0.0000000    
   0.0000000    
   0.0000000    
   0.0000000    
   0.0000000    
   0.0000000    
   0.0000000    
   0.0000000    
   0.0000000    
   0.0000000    
   0.0000000    
   0.0000000    
   0.0000000    
   0.0000000    
   0.0000000    
   0.0000000    
   0.0000000    
   0.0000000    
   0.0000000    
   0.0000000    
   0.0000000    
   0.0000000    
   0.0000000    
   0.0000000    
   0.0000000    
   0.0000000    
   0.0000000    
   636.79626    
   3698.1738    
   11576.885    
   10249.377    
   14931.259    
   15901.689    
   14147.461    
   15340.108    
   13588.976    
   12798.999    
   11305.790    
   9862.2305    
   8620.1367    
   7231.9673    
   5926.4229    
   5346.8633    
   4990.9673    
   4687.4019    
   4266.5723    
   3497.1831    
   3472.5999    
   3180.5750    
   2806.7063    
   2889.5159    
   2828.1736    
   2642.0928    
   2471.6699    
   2337.6094    
   1716.0830    
   1516.7654    
   787.04523    
   1183.5076    
   131.23785    
  -77.641808    
  -133.52313    
   6829.4063    
  -1007.2070    
  -362.09286    
   11.694640    
   32.746048    
   25.260948    
  0.70166665    
   2.1050045    
   0.0000000    
   0.0000000    
   0.0000000    
   0.0000000    
   0.0000000    
   0.0000000    
   0.0000000    
   0.0000000    
   0.0000000    
   0.0000000    
   0.0000000    
   0.0000000    
   0.0000000    
   0.0000000    
   0.0000000    
   0.0000000    
   0.0000000    
   0.0000000    
   0.0000000    
   0.0000000    
   0.0000000    
   0.0000000    
   0.0000000    
   0.0000000    
   0.0000000    
   0.0000000    
   0.0000000    
   0.0000000    
   0.0000000    
   0.0000000    
   0.0000000    
   0.0000000    
   0.0000000    
   0.0000000    
   0.0000000    
   0.0000000    
   0.0000000    
   0.0000000    
   0.0000000    
   0.0000000    
   0.0000000    
   0.0000000    
   0.0000000    
   0.0000000    
   0.0000000    
   0.0000000    
   0.0000000    
   0.0000000    
   0.0000000    
   0.0000000    
   0.0000000    
   0.0000000    
   0.0000000    
   0.0000000    
   0.0000000    
   0.0000000    
   0.0000000    
   0.0000000    
   0.0000000    
   0.0000000    
   0.0000000    
   0.0000000    
   0.0000000    
   0.0000000    
   0.0000000    
   0.0000000    
   0.0000000    
   0.0000000    
   0.0000000    
   0.0000000    
   0.0000000    
   0.0000000    
   0.0000000    
   0.0000000    
   0.0000000    
   0.0000000    
   0.0000000    
   0.0000000    
   0.0000000    
   0.0000000    
   0.0000000    
   0.0000000    
   0.0000000    
   0.0000000    
   0.0000000    
   0.0000000    
   0.0000000    
   0.0000000    
   0.0000000    
   0.0000000    
   0.0000000    
   0.0000000    
   0.0000000    
   0.0000000    
   0.0000000    
   0.0000000    
   0.0000000    
   0.0000000    
   0.0000000    
   0.0000000    
   0.0000000    
   0.0000000    
   0.0000000    
   0.0000000    
   0.0000000    
   0.0000000    
   0.0000000    
   0.0000000    
   0.0000000    
   0.0000000    
   0.0000000    
   0.0000000    
   0.0000000    
   0.0000000    
   0.0000000    
   0.0000000    
   0.0000000    
   0.0000000    
   0.0000000    
   0.0000000    
   0.0000000    
   0.0000000    
   0.0000000    
   0.0000000    
   0.0000000    
   0.0000000    
   0.0000000    
   0.0000000    
   0.0000000    
   0.0000000    
   0.0000000    
   0.0000000    
   0.0000000    
   0.0000000    
   0.0000000    
   0.0000000    
   0.0000000    
   0.0000000    
   0.0000000    
   0.0000000    
   0.0000000    
   0.0000000    
   0.0000000    
   0.0000000    
   0.0000000    
   0.0000000    
   0.0000000    
   0.0000000    
   0.0000000    
   0.0000000    
   0.0000000    
   0.0000000    
   0.0000000    
   0.0000000    
   0.0000000    
   0.0000000    
   0.0000000    
   0.0000000    
   0.0000000    
   0.0000000    
   0.0000000    
   0.0000000    
   0.0000000    
   0.0000000    
   0.0000000    
   0.0000000    
   0.0000000    
   0.0000000    
   0.0000000    
   0.0000000    
   0.0000000    
   0.0000000    
   0.0000000    
   0.0000000    
   0.0000000    
   0.0000000    
   0.0000000    
   0.0000000    
   0.0000000    
   0.0000000    
   0.0000000    
   0.0000000    
   0.0000000    
   0.0000000    
   0.0000000    
   0.0000000    
   0.0000000    
   0.0000000    
   0.0000000    
   0.0000000    
   0.0000000    
   0.0000000    
   0.0000000    
   0.0000000    
   0.0000000    
   0.0000000    
   0.0000000    
   0.0000000    
   0.0000000    
   0.0000000    
   9937.4072    
   148.78700    
  -468.14346    
   37.658237    
  -222.11873    
   365.06989    
   659.76276    
   4259.4644    
   8656.6250    
   8157.1763    
   4769.9707    
   6285.2261    
   7919.9458    
   8859.7822    
   12169.930    
   10449.392    
   27488.586    
   20324.520    
   32359.543    
   14082.570    
   36589.027    
   65725.703    
   122714.19    
   147597.25    
   120515.30    
   121235.02    
   133046.72    
   139459.16    
   38454.332    
   275.40283    
   0.0000000    
   0.0000000    
   0.0000000    
   0.0000000    
   0.0000000    
   0.0000000    
   0.0000000    
   0.0000000    
   0.0000000    
   0.0000000    
   0.0000000    
   0.0000000    
   0.0000000    
   0.0000000    
   0.0000000    
   0.0000000    
   0.0000000    
   0.0000000    
   0.0000000    
   0.0000000    
   0.0000000    
   0.0000000    
   0.0000000    
   0.0000000    
   0.0000000    
   0.0000000    
   0.0000000    
   0.0000000    
   0.0000000    
   0.0000000    
   0.0000000    
   0.0000000    
   0.0000000    
   0.0000000    
   0.0000000    
   0.0000000    
   0.0000000    
   0.0000000    
   0.0000000    
   0.0000000    
   0.0000000    
   0.0000000    
   0.0000000    
   0.0000000    
   0.0000000    
   0.0000000    
   0.0000000    
   0.0000000    
   0.0000000    
   13775.604    
   9001.2969    
   15015.632    
   10204.999    
   11271.677    
   13292.430    
   15710.474    
   13935.515    
   11632.099    
   10022.483    
   11139.126    
   16371.354    
   17837.688    
   17409.377    
   11206.846    
   9324.4307    
   4267.0464    
   4120.4146    
   1160.7391    
   3887.6895    
   5810.7158    
   10796.620    
   5510.9219    
   12682.857    
   9272.2373    
   7725.9727    
   7223.8394    
   12872.883    
   12143.733    
   406.75119    
   0.0000000    
   0.0000000    
   0.0000000    
   0.0000000    
   0.0000000    
   0.0000000    
   0.0000000    
   0.0000000    
   0.0000000    
   0.0000000    
   0.0000000    
   0.0000000    
   0.0000000    
   0.0000000    
   0.0000000    
   0.0000000    
   0.0000000    
   0.0000000    
   0.0000000    
   0.0000000    
   0.0000000    
   0.0000000    
   0.0000000    
   0.0000000    
   0.0000000    
   0.0000000    
   0.0000000    
   0.0000000    
   0.0000000    
   0.0000000    
   0.0000000    
   0.0000000    
   0.0000000    
   0.0000000    
   0.0000000    
   0.0000000    
   0.0000000    
   0.0000000    
   0.0000000    
   0.0000000    
   0.0000000    
   0.0000000    
   0.0000000    
   0.0000000    
   0.0000000    
   0.0000000    
   0.0000000    
   0.0000000    
   0.0000000    
   0.0000000    
   9543.8770    
   34700.254    
   11574.705    
   105449.57    
   1357.9619    
   30950.619    
   10765.698    
   43665.430    
   15514.709    
   81440.406    
   3944.0210    
   133337.86    
   4845.6772    
   109275.70    
   2144.2717    
   106051.50    
   5718.1318    
   25927.141    
   42178.117    
   154700.30    
   11059.330    
   217206.64    
   1420.2057    
   88575.930    
   215.95049    
   30185.896    
   0.0000000    
   1749.0007    
   0.0000000    
   0.0000000    
   0.0000000    
   0.0000000    
   0.0000000    
   0.0000000    
   0.0000000    
   0.0000000    
   0.0000000    
   0.0000000    
   0.0000000    
   0.0000000    
   0.0000000    
   0.0000000    
   0.0000000    
   0.0000000    
   0.0000000    
   0.0000000    
   0.0000000    
   0.0000000    
   0.0000000    
   0.0000000    
   0.0000000    
   0.0000000    
   0.0000000    
   0.0000000    
   0.0000000    
   0.0000000    
   0.0000000    
   0.0000000    
   0.0000000    
   0.0000000    
   0.0000000    
   0.0000000    
   0.0000000    
   0.0000000    
   0.0000000    
   0.0000000    
   0.0000000    
   0.0000000    
   0.0000000    
   0.0000000    
   0.0000000    
   0.0000000    
   0.0000000    
   0.0000000    
   0.0000000    
   0.0000000    
   0.0000000    
   0.0000000    
   0.0000000    
   0.0000000    
   0.0000000    
   8.1862049    
   0.0000000    
   234.90852    
   0.0000000    
   327.13983    
   0.0000000    
   88.421852    
   0.0000000    
   469.04886    
   0.0000000    
   570.95221    
   0.0000000    
   192.31297    
   0.0000000    
   88.187904    
   0.0000000    
   484.27377    
  0.23388872    
   2898.2461    
   0.0000000    
   1249.4747    
   0.0000000    
   17.542118    
   0.0000000    
   0.0000000    
   0.0000000    
   0.0000000    
   0.0000000    
   0.0000000    
   0.0000000    
   0.0000000    
   0.0000000    
   0.0000000    
   0.0000000    
   0.0000000    
   0.0000000    
   0.0000000    
   0.0000000    
   0.0000000    
   0.0000000    
   0.0000000    
   0.0000000    
   0.0000000    
   0.0000000    
   0.0000000    
   0.0000000    
   0.0000000    
   0.0000000    
   0.0000000    
   0.0000000    
   0.0000000    
   0.0000000    
   0.0000000    
   0.0000000    
   0.0000000    
   0.0000000    
   0.0000000    
   0.0000000    
   0.0000000    
   0.0000000    
   0.0000000    
   0.0000000    
   0.0000000    
   0.0000000    
   0.0000000    
   0.0000000    
   0.0000000    
   0.0000000    
   0.0000000    
   0.0000000    
   0.0000000    
   0.0000000    
   0.0000000    
   0.0000000    
   0.0000000    
   0.0000000    
   0.0000000    
   0.0000000    
   0.0000000    
   0.0000000    
   0.0000000    
   0.0000000    
   0.0000000    
   0.0000000    
   0.0000000    
   0.0000000    
   0.0000000    
   0.0000000    
   0.0000000    
   0.0000000    
   0.0000000    
   0.0000000    
   0.0000000    
   0.0000000    
   0.0000000    
   0.0000000    
   0.0000000    
   0.0000000    
   0.0000000    
   0.0000000    
   0.0000000    
   0.0000000    
   0.0000000    
   0.0000000    
   0.0000000    
   0.0000000    
   0.0000000    
   0.0000000    
   0.0000000    
   0.0000000    
   0.0000000    
   0.0000000    
   0.0000000    
   0.0000000    
   0.0000000    
   0.0000000    
   0.0000000    
   0.0000000    
   0.0000000    
   0.0000000    
   0.0000000    
   0.0000000    
   0.0000000    
   0.0000000    
   0.0000000    
   0.0000000    
   0.0000000    
   0.0000000    
   0.0000000    
   0.0000000    
   0.0000000    
   0.0000000    
   0.0000000    
   0.0000000    
   0.0000000    
   0.0000000    
   0.0000000    
   0.0000000    
   0.0000000    
   0.0000000    
   0.0000000    
   0.0000000    
   0.0000000    
   0.0000000    
   0.0000000    
   0.0000000    
   0.0000000    
   0.0000000    
   0.0000000    
   0.0000000    
   0.0000000    
   0.0000000    
   0.0000000    
   0.0000000    
   0.0000000    
   0.0000000    
   0.0000000    
   0.0000000    
   0.0000000    
   0.0000000    
   0.0000000    
   0.0000000    
   0.0000000    
   0.0000000    
   0.0000000    
   0.0000000    
   0.0000000    
   0.0000000    
   0.0000000    
   0.0000000    
   0.0000000    
   0.0000000    
   0.0000000    
   0.0000000    
   0.0000000    
   0.0000000    
   0.0000000    
   0.0000000    
   0.0000000    
   0.0000000    
   0.0000000    
   0.0000000    
   0.0000000    
   0.0000000    
   0.0000000    
   0.0000000    
   0.0000000    
   0.0000000    
   0.0000000    
   0.0000000    
   0.0000000    
   0.0000000    
   0.0000000    
   0.0000000    
   0.0000000    
   0.0000000    
   0.0000000    
   0.0000000    
   0.0000000    
   0.0000000    
   0.0000000    
   0.0000000    
   0.0000000    
   0.0000000    
   0.0000000    
   0.0000000    
   0.0000000    
   0.0000000    
   0.0000000    
   0.0000000    
   0.0000000    
   0.0000000    
   0.0000000    
   0.0000000    
   0.0000000    
   0.0000000    
   0.0000000    
   0.0000000    
   0.0000000    
   0.0000000    
   0.0000000    
   0.0000000    
   0.0000000    
   0.0000000    
   0.0000000    
   0.0000000    
   0.0000000    
   0.0000000    
   0.0000000    
   0.0000000    
   0.0000000    
   0.0000000    
   0.0000000    
   0.0000000    
   0.0000000    
   0.0000000    
   0.0000000    
   0.0000000    
   0.0000000    
   0.0000000    
   0.0000000    
   0.0000000    
   0.0000000    
   0.0000000    
   0.0000000    
   0.0000000    
   0.0000000    
   0.0000000    
   0.0000000    
   0.0000000    
   0.0000000    
   0.0000000    
   0.0000000    
   0.0000000    
   0.0000000    
   0.0000000    
   0.0000000    
   0.0000000    
   0.0000000    
   0.0000000    
   0.0000000    
   0.0000000    
   0.0000000    
   0.0000000    
   0.0000000    
   0.0000000    
   0.0000000    
   0.0000000    
   0.0000000    
   0.0000000    
   0.0000000    
   0.0000000    
   0.0000000    
   0.0000000    
   0.0000000    
   0.0000000    
   0.0000000    
   0.0000000    
   0.0000000    
   0.0000000    
   0.0000000    
   0.0000000    
   0.0000000    
   0.0000000    
   0.0000000    
   0.0000000    
   0.0000000    
   0.0000000    
   0.0000000    
   0.0000000    
   0.0000000    
   0.0000000    
   0.0000000    
   0.0000000    
   0.0000000    
   0.0000000    
   0.0000000    
   0.0000000    
   0.0000000    
   0.0000000    
   0.0000000    
   0.0000000    
   0.0000000    
   0.0000000    
   0.0000000    
   0.0000000    
   0.0000000    
   0.0000000    
   0.0000000    
   0.0000000    
   0.0000000    
   0.0000000    
   0.0000000    
   0.0000000    
   0.0000000    
   0.0000000    
   0.0000000    
   0.0000000    
   0.0000000    
   0.0000000    
   0.0000000    
   0.0000000    
   0.0000000    
   0.0000000    
   0.0000000    
   0.0000000    
   0.0000000    
   0.0000000    
   0.0000000    
   0.0000000    
   0.0000000    
   0.0000000    
   0.0000000    
   0.0000000    
   0.0000000    
   0.0000000    
   0.0000000    
   0.0000000    
   0.0000000    
   0.0000000    
   0.0000000    
   0.0000000    
   0.0000000    
   0.0000000    
   0.0000000    
   0.0000000    
   0.0000000    
   0.0000000    
   0.0000000    
   0.0000000    
   0.0000000    
   0.0000000    
   0.0000000    
   0.0000000    
   0.0000000    
   0.0000000    
   0.0000000    
   0.0000000    
   0.0000000    
   0.0000000    
   0.0000000    
   0.0000000    
   0.0000000    
   0.0000000    
   0.0000000    
   0.0000000    
   0.0000000    
   0.0000000    
   0.0000000    
   0.0000000    
   0.0000000    
   0.0000000    
   0.0000000    
   0.0000000    
   0.0000000    
   0.0000000    
   0.0000000    
   0.0000000    
   0.0000000    
   0.0000000    
   0.0000000    
   0.0000000    
   0.0000000    
   0.0000000    
   0.0000000    
   0.0000000    
   0.0000000    
   0.0000000    
   0.0000000    
   0.0000000    
   0.0000000    
   0.0000000    
   0.0000000    
   0.0000000    
   0.0000000    
   0.0000000    
   0.0000000    
   0.0000000    
   0.0000000    
   0.0000000    
   0.0000000    
   0.0000000    
   0.0000000    
   0.0000000    
   0.0000000    
   0.0000000    
   0.0000000    
   0.0000000    
   0.0000000    
   0.0000000    
   0.0000000    
   0.0000000    
   0.0000000    
   0.0000000    
   0.0000000    
   0.0000000    
   0.0000000    
   0.0000000    
   0.0000000    
   0.0000000    
   0.0000000    
   0.0000000    
   0.0000000    
   0.0000000    
   0.0000000    
   0.0000000    
   0.0000000    
   0.0000000    
   0.0000000    
   0.0000000    
   0.0000000    
   0.0000000    
   0.0000000    
   0.0000000    
   0.0000000    
   0.0000000    
   0.0000000    
   0.0000000    
   0.0000000    
   0.0000000    
   0.0000000    
   0.0000000    
   0.0000000    
   0.0000000    
   0.0000000    
   0.0000000    
   0.0000000    
   0.0000000    
   0.0000000    
   0.0000000    
   0.0000000    
   0.0000000    
   0.0000000    
   0.0000000    
   0.0000000    
   0.0000000    
   0.0000000    
   0.0000000    
   0.0000000    
   0.0000000    
   0.0000000    
   0.0000000    
   0.0000000    
   0.0000000    
   0.0000000    
   0.0000000    
   0.0000000    
   0.0000000    
   0.0000000    
   0.0000000    
   0.0000000    
   0.0000000    
   0.0000000    
   0.0000000    
   0.0000000    
   0.0000000    
   0.0000000    
   0.0000000    
   0.0000000    
   0.0000000    
   0.0000000    
   0.0000000    
   0.0000000    
   0.0000000    
   0.0000000    
   0.0000000    
   0.0000000    
   0.0000000    
   0.0000000    
   0.0000000    
   0.0000000    
   0.0000000    
   0.0000000    
   0.0000000    
   0.0000000    
   0.0000000    
   0.0000000    
   0.0000000    
   0.0000000    
   0.0000000    
   0.0000000    
   0.0000000    
   0.0000000    
   0.0000000    
   0.0000000    
   0.0000000    
   0.0000000    
   0.0000000    
   0.0000000    
   0.0000000    
   0.0000000    
   0.0000000    
   0.0000000    
   0.0000000    
   0.0000000    
   0.0000000    
   0.0000000    
   0.0000000    
   0.0000000    
   0.0000000    
   0.0000000    
   0.0000000    
   0.0000000    
   0.0000000    
   0.0000000    
   0.0000000    
   0.0000000    
   0.0000000    
   0.0000000    
   0.0000000    
   0.0000000    
   0.0000000    
   0.0000000    
   0.0000000    
   0.0000000    
   0.0000000    
   0.0000000    
   0.0000000    
   0.0000000    
   0.0000000    
   0.0000000    
   0.0000000    
   0.0000000    
   0.0000000    
   0.0000000    
   0.0000000    
   0.0000000    
   0.0000000    
   0.0000000    
   0.0000000    
   0.0000000    
   0.0000000    
   0.0000000    
   0.0000000    
   0.0000000    
   0.0000000    
   0.0000000    
   0.0000000    
   0.0000000    
   0.0000000    
   0.0000000    
   0.0000000    
   0.0000000    
   0.0000000    
   0.0000000    
   0.0000000    
   0.0000000    
   0.0000000    
   0.0000000    
   0.0000000    
   0.0000000    
   0.0000000    
   0.0000000    
   0.0000000    
   0.0000000    
   0.0000000    
   0.0000000    
   0.0000000    
   0.0000000    
   0.0000000    
   0.0000000    
   0.0000000    
   0.0000000    
   0.0000000    
   0.0000000    
   0.0000000    
   0.0000000    
   0.0000000    
   0.0000000    
   0.0000000    
   0.0000000    
   0.0000000    
   0.0000000    
   0.0000000    
   0.0000000    
   0.0000000    
   0.0000000    
   0.0000000    
   0.0000000    
   0.0000000    
   0.0000000    
   0.0000000    
   0.0000000    
   0.0000000    
   0.0000000    
   0.0000000    
   0.0000000    
   0.0000000    
   0.0000000    
   0.0000000    
   0.0000000    
   0.0000000    
   0.0000000    
   0.0000000    
   0.0000000    
   0.0000000    
   0.0000000    
   0.0000000    
   0.0000000    
   0.0000000    
   0.0000000    
   0.0000000    
   0.0000000    
   0.0000000    
   0.0000000    
   0.0000000    
   0.0000000    
   0.0000000    
   0.0000000    
   0.0000000    
   0.0000000    
   0.0000000    
   0.0000000    
   0.0000000    
   0.0000000    
   0.0000000    
   0.0000000    
   0.0000000    
   0.0000000    
   0.0000000    
   0.0000000    
   0.0000000    
   0.0000000    
   0.0000000    
   0.0000000    
   0.0000000    
   0.0000000    
   0.0000000    
   0.0000000    
   0.0000000    
   0.0000000    
   0.0000000    
   0.0000000    
   0.0000000    
   0.0000000    
   0.0000000    
   0.0000000    
   0.0000000    
   0.0000000    
   0.0000000    
   0.0000000    
   0.0000000    
   0.0000000    
   0.0000000    
   0.0000000    
   0.0000000    
   0.0000000    
   0.0000000    
   0.0000000    
   0.0000000    
   0.0000000    
   0.0000000    
   0.0000000    
   0.0000000    
   0.0000000    
   0.0000000    
   0.0000000    
   0.0000000    
   0.0000000    
   0.0000000    
   0.0000000    
   0.0000000    
   0.0000000    
   0.0000000    
   0.0000000    
   0.0000000    
   0.0000000    
   0.0000000    
   0.0000000    
   0.0000000    
   0.0000000    
   0.0000000    
   0.0000000    
   0.0000000    
   0.0000000    
   0.0000000    
   0.0000000    
   0.0000000    
   0.0000000    
   0.0000000    
   0.0000000    
   0.0000000    
   0.0000000    
   0.0000000    
   0.0000000    
   0.0000000    
   0.0000000    
   0.0000000    
   0.0000000    
   0.0000000    
   0.0000000    
   0.0000000    
   0.0000000    
   0.0000000    
   0.0000000    
   0.0000000    
   0.0000000    
   0.0000000    
   0.0000000    
   0.0000000    
   0.0000000    
   0.0000000    
   0.0000000    
   0.0000000    
   0.0000000    
   0.0000000    
   0.0000000    
   0.0000000    
   0.0000000    
   0.0000000    
   0.0000000    
   0.0000000    
   0.0000000    
   0.0000000    
   0.0000000    
   0.0000000    
   0.0000000    
   0.0000000    
   0.0000000    
   0.0000000    
   0.0000000    
   0.0000000    
   0.0000000    
   0.0000000    
   0.0000000    
   0.0000000    
   0.0000000    
   0.0000000    
   0.0000000    
   0.0000000    
   0.0000000    
   0.0000000    
   0.0000000    
   0.0000000    
   0.0000000    
   0.0000000    
   0.0000000    
   0.0000000    
   0.0000000    
   0.0000000    
   0.0000000    
   0.0000000    
   0.0000000    
   0.0000000    
   0.0000000    
   0.0000000    
   0.0000000    
   0.0000000    
   0.0000000    
   0.0000000    
   0.0000000    
   0.0000000    
   0.0000000    
   0.0000000    
   0.0000000    
   0.0000000    
   0.0000000    
   0.0000000    
   0.0000000    
   0.0000000    
   0.0000000    
   0.0000000    
   0.0000000    
   0.0000000    
   0.0000000    
   0.0000000    
   0.0000000    
   0.0000000    
   0.0000000    
   0.0000000    
   0.0000000    
   0.0000000    
   0.0000000    
   0.0000000    
   0.0000000    
   0.0000000    
   0.0000000    
   0.0000000    
   0.0000000    
   22292.500    
   25413.797    
   27092.207    
   27103.092    
   26066.445    
   27868.658    
   24722.104    
   26382.605    
   23133.395    
   24256.447    
   22772.088    
   23471.266    
   22692.320    
   22047.836    
   22052.826    
   20491.701    
   21756.205    
   19523.010    
   21597.146    
   18523.885    
   21306.387    
   17490.168    
   20888.982    
   16886.412    
   20672.883    
   16361.778    
   19975.014    
   16223.074    
   19487.082    
   15993.904    
   18861.803    
   15836.714    
   18213.693    
   15825.681    
   17473.910    
   15646.268    
   16571.781    
   15348.678    
   15866.380    
   14768.931    
   15068.467    
   14038.910    
   14219.928    
   13408.777    
   13327.719    
   12824.759    
   12326.906    
   12192.974    
   11378.384    
   11466.727    
   10573.465    
   10642.038    
   9843.4385    
   9695.0693    
   9072.6768    
   8650.8633    
   8294.0791    
   7640.5161    
   7471.1040    
   6597.4072    
   6578.5586    
   5520.6729    
   5528.7593    
   4591.3350    
   4722.2778    
   3818.1169    
   3762.2800    
   2970.2219    
   3048.8230    
   2290.9719    
   2307.9302    
   1507.1316    
   1610.7681    
   1605.8323    
   1257.9270    
   958.47400    
   530.42133    
   842.61493    
   534.16962    
  -820.15259    
   21590.416    
   18753.000    
   18979.545    
   22112.230    
   19204.008    
   20806.406    
   18605.676    
   20468.346    
   18035.016    
   19963.850    
   17714.414    
   19520.037    
   17242.434    
   18769.813    
   16606.426    
   18003.682    
   16092.767    
   17523.180    
   15566.641    
   17034.977    
   15016.365    
   16769.867    
   14475.027    
   16413.838    
   13887.485    
   16210.802    
   13628.681    
   16057.929    
   13437.505    
   15782.535    
   13157.146    
   15480.174    
   12981.064    
   15103.450    
   12818.927    
   14610.587    
   12601.000    
   14001.108    
   12292.933    
   13321.147    
   11880.428    
   12621.645    
   11372.334    
   11887.214    
   10752.412    
   11079.398    
   10123.735    
   10292.072    
   9501.7568    
   9590.8164    
   8838.6445    
   8958.0430    
   8190.0181    
   8448.0713    
   7618.2583    
   7994.9307    
   7054.6372    
   7534.5039    
   6522.0181    
   7058.9380    
   5998.5815    
   6523.9268    
   5478.3418    
   5700.0464    
   4727.2603    
   4924.2490    
   4062.6323    
   3989.4717    
   3162.1550    
   3154.3621    
   2400.7454    
   2583.1538    
   1973.3999    
   1744.7683    
   1197.1226    
   1031.9039    
   606.33295    
   597.42883    
   166.57112    
   275.16873    
   19670.473    
   17659.693    
   17202.803    
   19148.807    
   17303.244    
   17558.904    
   16725.619    
   16866.000    
   16772.324    
   16559.252    
   16345.818    
   16184.050    
   15941.908    
   15912.970    
   15516.668    
   15693.073    
   14929.548    
   15352.350    
   14434.979    
   15089.261    
   14103.061    
   14769.419    
   13739.295    
   14296.804    
   13490.585    
   13963.555    
   13321.147    
   13652.067    
   13126.981    
   13242.543    
   12951.159    
   12904.483    
   12847.119    
   12693.062    
   12726.346    
   12514.791    
   12503.136    
   12303.853    
   12290.264    
   12075.342    
   12114.629    
   11779.378    
   11813.300    
   11324.179    
   11414.444    
   10840.351    
   10988.255    
   10329.706    
   10451.805    
   9679.6582    
   9824.8887    
   8940.9834    
   9138.5430    
   8209.6768    
   8422.4014    
   7494.3096    
   7695.8091    
   6824.1538    
   7045.0806    
   6212.7671    
   6402.7666    
   5622.2427    
   5729.7925    
   5046.5361    
   5057.4609    
   4320.5986    
   4302.5889    
   3705.0332    
   3638.3367    
   2797.9783    
   2709.2961    
   2097.8967    
   1983.0474    
   1673.0597    
   1476.3525    
   1010.7882    
   860.43671    
   446.32993    
   427.12543    
   269.31665    
   14509.706    
   15273.770    
   17590.691    
   17949.410    
   18038.963    
   17104.854    
   16859.115    
   16777.979    
   16859.607    
   16729.061    
   16487.766    
   16380.194    
   16276.830    
   16111.169    
   15967.905    
   15671.018    
   15628.381    
   15160.459    
   15407.686    
   14713.209    
   15120.576    
   14160.147    
   14686.573    
   13547.813    
   14136.238    
   12962.829    
   13636.720    
   12540.529    
   13143.279    
   12225.239    
   12623.588    
   11995.811    
   12208.257    
   11877.762    
   11878.246    
   11712.755    
   11560.177    
   11493.597    
   11211.684    
   11313.049    
   10867.896    
   11101.886    
   10522.526    
   10781.642    
   10105.411    
   10369.999    
   9621.1504    
   9908.9727    
   9132.5332    
   9439.6709    
   8657.5850    
   8950.8350    
   8178.2715    
   8424.7998    
   7703.7090    
   7887.3696    
   7221.2100    
   7314.4502    
   6708.1357    
   6807.6797    
   6268.0635    
   6243.5127    
   5740.7402    
   5592.7437    
   5119.4546    
   4895.9990    
   4446.4561    
   4111.6519    
   3644.9585    
   3371.4487    
   2905.7971    
   2510.0840    
   2140.7402    
   1792.7395    
   1463.1959    
   1222.4760    
   878.02496    
   644.52966    
   407.92209    
   397.61832    
   11238.292    
   14350.505    
   18924.873    
   19369.170    
   19131.480    
   17389.182    
   17992.580    
   17387.211    
   18391.723    
   17271.484    
   18177.654    
   16839.691    
   18044.639    
   16489.977    
   17660.434    
   15934.060    
   17143.734    
   15425.316    
   16735.205    
   15001.446    
   16206.139    
   14507.508    
   15519.853    
   13972.577    
   14778.951    
   13513.476    
   14052.325    
   13087.821    
   13320.174    
   12603.186    
   12597.843    
   12148.584    
   11885.032    
   11784.951    
   11329.986    
   11529.912    
   10937.979    
   11287.160    
   10630.930    
   11013.396    
   10359.383    
   10736.470    
   10088.775    
   10438.049    
   9845.1250    
   10097.455    
   9604.0566    
   9685.6777    
   9259.7314    
   9190.9561    