<?xml version="1.0"?>
<VTKFile type= "UnstructuredGrid"  version= "0.1"  byte_order= "BigEndian">                         
 <UnstructuredGrid>                                                                                 
  <Piece NumberOfPoints="118" NumberOfCells="118">                                                  
   <PointData Scalars="Pressure" Vectors="Velocity">                                                
    <DataArray type="Float32" Name="Pressures" format="ascii">                                      
   3252.3760    
   48598.895    
   144996.81    
   84115.414    
   18826.686    
   589.22784    
   0.0000000    
   0.0000000    
   0.0000000    
   1260.7445    
   2848.9343    
   10407.883    
   11438.164    
   1685.5194    
   932.67188    
   0.0000000    
   0.0000000    
   0.0000000    
   0.0000000    
   0.0000000    
   0.0000000    
   0.0000000    
   0.0000000    
   0.0000000    
   0.0000000    
   0.0000000    
   0.0000000    
   0.0000000    
   0.0000000    
   0.0000000    
   0.0000000    
   0.0000000    
   0.0000000    
   0.0000000    
   0.0000000    
   0.0000000    
   60526.676    
   65148.672    
   87268.297    
   469160.84    
   9869.2168    
   45488.938    
   7261.3716    
   26.898298    
   0.0000000    
   0.0000000    
   0.0000000    
   0.0000000    
   0.0000000    
   0.0000000    
   0.0000000    
   10837.693    
   46028.375    
   18463.604    
   34860.559    
   402.06763    
   1684.5790    
   89.123711    
   13.565822    
   0.0000000    
   0.0000000    
   0.0000000    
   0.0000000    
   0.0000000    
   0.0000000    
   0.0000000    
   0.0000000    
   2585.5112    
   9006.5840    
   10631.413    
   142905.13    
   2104.4878    
   96160.219    
   409.32718    
   60979.387    
   0.0000000    
   3.5083482    
   0.0000000    
   185.29227    
   0.0000000    
   12.864128    
   0.0000000    
   6.0811610    
   0.0000000    
   0.0000000    
   0.0000000    
   0.0000000    
   0.0000000    
   0.0000000    
   0.0000000    
   0.0000000    
  -15147.289    
   7993.7329    
  -10865.107    
  -4769.3877    
  -34413.691    
   3376.6475    
   23779.361    
   11600.373    
  -44289.293    
   9054.1699    
   41945.297    
   17144.719    
  -22492.537    
  -1841.3452    
   2808.1218    
   38650.238    
   8856.4199    
  -53922.855    
  -32122.633    
  -3103.0278    
   4123.0195    
  -3193.2495    
   30197.896    
   2646.5728    
   1759.1119    
   28896.535    
   8175.3945    
    </DataArray>                                                                                    
    <DataArray type="Float32" Name="FM" format="ascii">                                             
  1.95217365E-03
  1.55962608E-03
  2.44457019E-03
  9.05372435E-04
 -7.36654736E-04
  1.40189455E-04
   0.0000000    
   0.0000000    
   0.0000000    
  5.20055299E-04
  7.84214644E-04
  3.87803520E-05
  8.06399912E-04
 -2.17639026E-04
 -9.05736524E-05
   0.0000000    
   0.0000000    
   0.0000000    
   0.0000000    
   0.0000000    
   0.0000000    
   0.0000000    
   0.0000000    
   0.0000000    
   0.0000000    
   0.0000000    
   0.0000000    
   0.0000000    
   0.0000000    
   0.0000000    
   0.0000000    
   0.0000000    
   0.0000000    
   0.0000000    
   0.0000000    
   0.0000000    
  9.39513557E-03
  4.32218192E-03
  1.71077326E-02
  1.90227721E-02
  2.72010267E-03
  4.62125428E-03
  1.77834718E-03
 -6.82471946E-05
  4.25994733E-43
   0.0000000    
   0.0000000    
   0.0000000    
   0.0000000    
   0.0000000    
   0.0000000    
  2.80773453E-03
  7.13252882E-03
  5.87635301E-03
  8.89020786E-03
  7.89395720E-03
  1.99860684E-03
  1.81719288E-03
 -1.56353548E-04
 -1.37294179E-39
 -3.50324616E-43
   0.0000000    
   0.0000000    
   0.0000000    
   0.0000000    
   0.0000000    
   0.0000000    
 -1.84382996E-04
 -7.73593492E-04
 -7.93061190E-05
  7.11102155E-04
  1.82457588E-04
  2.94233731E-04
  1.81845026E-04
  9.91009874E-04
  1.59467765E-42
 -7.40848282E-06
   0.0000000    
 -7.56378859E-06
  -0.0000000    
  3.42675366E-06
   0.0000000    
  2.89916125E-06
   0.0000000    
  3.44719422E-43
   0.0000000    
   0.0000000    
   0.0000000    
   0.0000000    
   0.0000000    
   0.0000000    
   125.76674    
   125.61256    
   125.46333    
   125.31018    
   125.15567    
   125.00000    
   125.75494    
   125.60624    
   125.46037    
   125.31038    
   125.15567    
   125.00000    
   125.75644    
   125.61089    
   125.46005    
   125.31018    
   125.15553    
   125.00000    
   125.76566    
   125.61221    
   125.46202    
   125.30890    
   125.15567    
   125.00012    
   125.61399    
   125.31004    
   125.00000    
    </DataArray>                                                                                    
    <DataArray type="Float32" Name="por" format="ascii">                                            
  0.69999999    
  0.69999999    
  0.69999999    
  0.69999999    
  0.69999999    
  0.69999999    
  0.69999999    
  0.69999999    
  0.69999999    
  0.69999999    
  0.69999999    
  0.69999999    
  0.69999999    
  0.69999999    
  0.69999999    
  0.69999999    
  0.69999999    
  0.69999999    
  0.69999999    
  0.69999999    
  0.69999999    
  0.69999999    
  0.69999999    
  0.69999999    
  0.69999999    
  0.69999999    
  0.69999999    
  0.69999999    
  0.69999999    
  0.69999999    
  0.69999999    
  0.69999999    
  0.69999999    
  0.69999999    
  0.69999999    
  0.69999999    
  0.69999999    
  0.69999999    
  0.69999999    
  0.69999999    
  0.69999999    
  0.69999999    
  0.69999999    
  0.69999999    
  0.69999999    
  0.69999999    
  0.69999999    
  0.69999999    
  0.69999999    
  0.69999999    
  0.69999999    
  0.69999999    
  0.69999999    
  0.69999999    
  0.69999999    
  0.69999999    
  0.69999999    
  0.69999999    
  0.69999999    
  0.69999999    
  0.69999999    
  0.69999999    
  0.69999999    
  0.69999999    
  0.69999999    
  0.69999999    
  0.69999999    
  0.69999999    
  0.69999999    
  0.69999999    
  0.69999999    
  0.69999999    
  0.69999999    
  0.69999999    
  0.69999999    
  0.69999999    
  0.69999999    
  0.69999999    
  0.69999999    
  0.69999999    
  0.69999999    
  0.69999999    
  0.69999999    
  0.69999999    
  0.69999999    
  0.69999999    
  0.69999999    
  0.69999999    
  0.69999999    
  0.69999999    
  0.69999999    
   1.0000000    
   1.0000000    
   1.0000000    
   1.0000000    
   1.0000000    
   1.0000000    
   1.0000000    
   1.0000000    
   1.0000000    
   1.0000000    
   1.0000000    
   1.0000000    
   1.0000000    
   1.0000000    
   1.0000000    
   1.0000000    
   1.0000000    
   1.0000000    
   1.0000000    
   1.0000000    
   1.0000000    
   1.0000000    
   1.0000000    
   1.0000000    
   1.0000000    
   1.0000000    
   1.0000000    
    </DataArray>                                                                                    
    <DataArray type="Float32" Name="Pcap" format="ascii">                                           
   999.99774    
   999.99817    
   999.99701    
   999.99890    
   1000.0009    
   999.99982    
   1000.0000    
   1000.0000    
   1000.0000    
   999.99939    
   999.99908    
   999.99994    
   999.99908    
   1000.0002    
   1000.0001    
   1000.0000    
   1000.0000    
   1000.0000    
   1000.0000    
   1000.0000    
   1000.0000    
   1000.0000    
   1000.0000    
   1000.0000    
   1000.0000    
   1000.0000    
   1000.0000    
   1000.0000    
   1000.0000    
   1000.0000    
   1000.0000    
   1000.0000    
   1000.0000    
   1000.0000    
   1000.0000    
   1000.0000    
   999.98895    
   999.99493    
   999.97968    
   999.97498    
   999.99689    
   999.99463    
   999.99799    
   1000.0001    
   1000.0000    
   1000.0000    
   1000.0000    
   1000.0000    
   1000.0000    
   1000.0000    
   1000.0000    
   999.99677    
   999.99170    
   999.99323    
   999.98969    
   999.99097    
   999.99774    
   999.99792    
   1000.0002    
   1000.0000    
   1000.0000    
   1000.0000    
   1000.0000    
   1000.0000    
   1000.0000    
   1000.0000    
   1000.0000    
   1000.0002    
   1000.0009    
   1000.0001    
   999.99915    
   999.99982    
   999.99963    
   999.99982    
   999.99884    
   1000.0000    
   1000.0000    
   1000.0000    
   1000.0000    
   1000.0000    
   1000.0000    
   1000.0000    
   1000.0000    
   1000.0000    
   1000.0000    
   1000.0000    
   1000.0000    
   1000.0000    
   1000.0000    
   1000.0000    
   1000.0000    
   0.0000000    
   0.0000000    
   0.0000000    
   0.0000000    
   0.0000000    
   0.0000000    
   0.0000000    
   0.0000000    
   0.0000000    
   0.0000000    
   0.0000000    
   0.0000000    
   0.0000000    
   0.0000000    
   0.0000000    
   0.0000000    
   0.0000000    
   0.0000000    
   0.0000000    
   0.0000000    
   0.0000000    
   0.0000000    
   0.0000000    
   0.0000000    
   0.0000000    
   0.0000000    
   0.0000000    
    </DataArray>                                                                                    
    <DataArray type="Float32" Name="Density" format="ascii">                                        
   1001.6495    
   1023.1053    
   1061.3732    
   1038.2040    
   1009.3304    
   1000.3000    
   1000.0000    
   1000.0000    
   1000.0000    
   1000.6414    
   1001.4458    
   1005.2222    
   1005.7303    
   1000.8569    
   1000.4747    
   1000.0000    
   1000.0000    
   1000.0000    
   1000.0000    
   1000.0000    
   1000.0000    
   1000.0000    
   1000.0000    
   1000.0000    
   1000.0000    
   1000.0000    
   1000.0000    
   1000.0000    
   1000.0000    
   1000.0000    
   1000.0000    
   1000.0000    
   1000.0000    
   1000.0000    
   1000.0000    
   1000.0000    
   1028.3256    
   1030.3064    
   1039.4824    
   1150.8533    
   1004.9559    
   1021.7177    
   1003.6605    
   1000.0137    
   1000.0000    
   1000.0000    
   1000.0000    
   1000.0000    
   1000.0000    
   1000.0000    
   1000.0000    
   1005.4344    
   1021.9592    
   1009.1553    
   1016.8878    
   1000.2048    
   1000.8564    
   1000.0454    
   1000.0070    
   1000.0000    
   1000.0000    
   1000.0000    
   1000.0000    
   1000.0000    
   1000.0000    
   1000.0000    
   1000.0000    
   1001.3126    
   1004.5286    
   1005.3326    
   1060.6257    
   1001.0692    
   1043.0382    
   1000.2085    
   1028.5206    
   1000.0000    
   1000.0018    
   1000.0000    
   1000.0944    
   1000.0000    
   1000.0066    
   1000.0000    
   1000.0031    
   1000.0000    
   1000.0000    
   1000.0000    
   1000.0000    
   1000.0000    
   1000.0000    
   1000.0000    
   1000.0000    
   992.09467    
   1004.0254    
   994.36798    
   997.55121    
   981.45996    
   1001.7122    
   1011.7010    
   1005.8103    
   975.72900    
   1004.5522    
   1020.1225    
   1008.5176    
   988.12085    
   999.05884    
   1001.4251    
   1018.6257    
   1004.4540    
   969.93683    
   982.76129    
   998.41089    
   1002.0883    
   998.36444    
   1014.7247    
   1001.3435    
   1000.8942    
   1014.1160    
   1004.1157    
    </DataArray>                                                                                    
    <DataArray type="Float32" Name="u-Velocity" format="ascii">                                     
   0.0000000    
   0.0000000    
   0.0000000    
   0.0000000    
   0.0000000    
   0.0000000    
   0.0000000    
   0.0000000    
   0.0000000    
   0.0000000    
   0.0000000    
   0.0000000    
   0.0000000    
   0.0000000    
   0.0000000    
   0.0000000    
   0.0000000    
   0.0000000    
   0.0000000    
   0.0000000    
   0.0000000    
   0.0000000    
   0.0000000    
   0.0000000    
   0.0000000    
   0.0000000    
   0.0000000    
   0.0000000    
   0.0000000    
   0.0000000    
   0.0000000    
   0.0000000    
   0.0000000    
   0.0000000    
   0.0000000    
   0.0000000    
   0.0000000    
   0.0000000    
   0.0000000    
   0.0000000    
   0.0000000    
   0.0000000    
   0.0000000    
   0.0000000    
   0.0000000    
   0.0000000    
   0.0000000    
   0.0000000    
   0.0000000    
   0.0000000    
   0.0000000    
   0.0000000    
   0.0000000    
   0.0000000    
   0.0000000    
   0.0000000    
   0.0000000    
   0.0000000    
   0.0000000    
   0.0000000    
   0.0000000    
   0.0000000    
   0.0000000    
   0.0000000    
   0.0000000    
   0.0000000    
   0.0000000    
   0.0000000    
   0.0000000    
   0.0000000    
   0.0000000    
   0.0000000    
   0.0000000    
   0.0000000    
   0.0000000    
   0.0000000    
   0.0000000    
   0.0000000    
   0.0000000    
   0.0000000    
   0.0000000    
   0.0000000    
   0.0000000    
   0.0000000    
   0.0000000    
   0.0000000    
   0.0000000    
   0.0000000    
   0.0000000    
   0.0000000    
   0.0000000    
  3.16946395E-02
  -1.3797505    
  -1.3100390    
  0.42788941    
   2.1533811    
  4.89573181E-02
 -0.62207234    
  -1.9128048    
  -1.9496526    
  0.43085492    
 -0.93574202    
 -0.37977809    
  -2.0806954    
  -1.3000851    
 -0.24728489    
  -1.5251017    
 -0.41172436    
  -2.5690522    
  -1.6057954    
  -1.3978331    
  0.47477394    
  -1.0347066    
  -2.7578266    
  -1.1230832    
 -0.68823910    
  0.24223088    
   1.5579259    
    </DataArray>                                                                                    
    <DataArray type="Float32" Name="w-Velocity" format="ascii">                                     
   0.0000000    
   0.0000000    
   0.0000000    
   0.0000000    
   0.0000000    
   0.0000000    
   0.0000000    
   0.0000000    
   0.0000000    
   0.0000000    
   0.0000000    
   0.0000000    
   0.0000000    
   0.0000000    
   0.0000000    
   0.0000000    
   0.0000000    
   0.0000000    
   0.0000000    
   0.0000000    
   0.0000000    
   0.0000000    
   0.0000000    
   0.0000000    
   0.0000000    
   0.0000000    
   0.0000000    
   0.0000000    
   0.0000000    
   0.0000000    
   0.0000000    
   0.0000000    
   0.0000000    
   0.0000000    
   0.0000000    
   0.0000000    
   0.0000000    
   0.0000000    
   0.0000000    
   0.0000000    
   0.0000000    
   0.0000000    
   0.0000000    
   0.0000000    
   0.0000000    
   0.0000000    
   0.0000000    
   0.0000000    
   0.0000000    
   0.0000000    
   0.0000000    
   0.0000000    
   0.0000000    
   0.0000000    
   0.0000000    
   0.0000000    
   0.0000000    
   0.0000000    
   0.0000000    
   0.0000000    
   0.0000000    
   0.0000000    
   0.0000000    
   0.0000000    
   0.0000000    
   0.0000000    
   0.0000000    
   0.0000000    
   0.0000000    
   0.0000000    
   0.0000000    
   0.0000000    
   0.0000000    
   0.0000000    
   0.0000000    
   0.0000000    
   0.0000000    
   0.0000000    
   0.0000000    
   0.0000000    
   0.0000000    
   0.0000000    
   0.0000000    
   0.0000000    
   0.0000000    
   0.0000000    
   0.0000000    
   0.0000000    
   0.0000000    
   0.0000000    
   0.0000000    
  -1.0333947    
   1.0831448    
  0.66710424    
   1.5563626    
   1.4307985    
 -0.95775884    
 -0.21652766    
  0.69906503    
  0.25516790    
  1.28533840E-02
  -1.2771568    
  -2.0072265    
  -2.2285385    
 -0.36206925    
  2.57193074E-02
 -0.12503207    
  0.69456923    
 -0.82053459    
  0.48754963    
 -0.32228845    
  0.50987220    
   1.6198932    
  0.81689680    
   1.0468459    
 -0.44613346    
  -1.6333017    
   2.1848011    
    </DataArray>                                                                                    
    <DataArray type="Float32" Name="Scalarplot" format="ascii">                                     
           1
           1
           1
           1
           1
           1
           1
           1
           1
           1
           1
           1
           1
           1
           1
           1
           1
           1
           1
           1
           1
           1
           1
           1
           1
           1
           1
           1
           1
           1
           1
           1
           1
           1
           1
           1
           1
           1
           1
           1
           1
           1
           1
           1
           1
           1
           1
           1
           1
           1
           1
           1
           1
           1
           1
           1
           1
           1
           1
           1
           1
           1
           1
           1
           1
           1
           1
           1
           1
           1
           1
           1
           1
           1
           1
           1
           1
           1
           1
           1
           1
           1
           1
           1
           1
           1
           1
           1
           1
           1
           1
           2
           2
           2
           2
           2
           2
           2
           2
           2
           2
           2
           2
           2
           2
           2
           2
           2
           2
           2
           2
           2
           2
           2
           2
           2
           2
           2
    </DataArray>                                                                                    
   </PointData>                                                                                     
   <Points>                                                                                         
    <DataArray type="Float32" NumberOfComponents="3" format="ascii">                                
   0.0000000       0.0000000       0.0000000    
   0.0000000       0.0000000      0.50000000    
   0.0000000       0.0000000       1.0000000    
   0.0000000       0.0000000       1.5000000    
   0.0000000       0.0000000       2.0000000    
   0.0000000       0.0000000       2.5000000    
   0.0000000       0.0000000       3.0000000    
   0.0000000       0.0000000       3.5000000    
   0.0000000       0.0000000       4.0000000    
 -0.25000000       0.0000000     -0.25000000    
 -0.25000000       0.0000000      0.25000000    
 -0.25000000       0.0000000      0.75000000    
 -0.25000000       0.0000000       1.2500000    
 -0.25000000       0.0000000       1.7500000    
 -0.25000000       0.0000000       2.2500000    
 -0.25000000       0.0000000       2.7500000    
 -0.25000000       0.0000000       3.2500000    
 -0.25000000       0.0000000       3.7500000    
   8.0000000       0.0000000       0.0000000    
   8.0000000       0.0000000      0.50000000    
   8.0000000       0.0000000       1.0000000    
   8.0000000       0.0000000       1.5000000    
   8.0000000       0.0000000       2.0000000    
   8.0000000       0.0000000       2.5000000    
   8.0000000       0.0000000       3.0000000    
   8.0000000       0.0000000       3.5000000    
   8.0000000       0.0000000       4.0000000    
   8.2500000       0.0000000     -0.25000000    
   8.2500000       0.0000000      0.25000000    
   8.2500000       0.0000000      0.75000000    
   8.2500000       0.0000000       1.2500000    
   8.2500000       0.0000000       1.7500000    
   8.2500000       0.0000000       2.2500000    
   8.2500000       0.0000000       2.7500000    
   8.2500000       0.0000000       3.2500000    
   8.2500000       0.0000000       3.7500000    
  0.50000000       0.0000000       0.0000000    
   1.0000000       0.0000000       0.0000000    
   1.5000000       0.0000000       0.0000000    
   2.0000000       0.0000000       0.0000000    
   2.5000000       0.0000000       0.0000000    
   3.0000000       0.0000000       0.0000000    
   3.5000000       0.0000000       0.0000000    
   4.0000000       0.0000000       0.0000000    
   4.5000000       0.0000000       0.0000000    
   5.0000000       0.0000000       0.0000000    
   5.5000000       0.0000000       0.0000000    
   6.0000000       0.0000000       0.0000000    
   6.5000000       0.0000000       0.0000000    
   7.0000000       0.0000000       0.0000000    
   7.5000000       0.0000000       0.0000000    
  0.25000000       0.0000000     -0.25000000    
  0.75000000       0.0000000     -0.25000000    
   1.2500000       0.0000000     -0.25000000    
   1.7500000       0.0000000     -0.25000000    
   2.2500000       0.0000000     -0.25000000    
   2.7500000       0.0000000     -0.25000000    
   3.2500000       0.0000000     -0.25000000    
   3.7500000       0.0000000     -0.25000000    
   4.2500000       0.0000000     -0.25000000    
   4.7500000       0.0000000     -0.25000000    
   5.2500000       0.0000000     -0.25000000    
   5.7500000       0.0000000     -0.25000000    
   6.2500000       0.0000000     -0.25000000    
   6.7500000       0.0000000     -0.25000000    
   7.2500000       0.0000000     -0.25000000    
   7.7500000       0.0000000     -0.25000000    
   4.0000000       0.0000000      0.50000000    
   3.7500000       0.0000000      0.25000000    
   4.0000000       0.0000000       1.0000000    
   3.7500000       0.0000000      0.75000000    
   4.0000000       0.0000000       1.5000000    
   3.7500000       0.0000000       1.2500000    
   4.0000000       0.0000000       2.0000000    
   3.7500000       0.0000000       1.7500000    
   4.5000000       0.0000000      0.50000000    
   4.2500000       0.0000000      0.25000000    
   4.5000000       0.0000000       1.0000000    
   4.2500000       0.0000000      0.75000000    
   4.5000000       0.0000000       1.5000000    
   4.2500000       0.0000000       1.2500000    
   4.5000000       0.0000000       2.0000000    
   4.2500000       0.0000000       1.7500000    
   5.0000000       0.0000000      0.50000000    
   4.7500000       0.0000000      0.25000000    
   5.0000000       0.0000000       1.0000000    
   4.7500000       0.0000000      0.75000000    
   5.0000000       0.0000000       1.5000000    
   4.7500000       0.0000000       1.2500000    
   5.0000000       0.0000000       2.0000000    
   4.7500000       0.0000000       1.7500000    
   2.6115291       0.0000000       1.0817678    
   1.4880117       0.0000000      0.99774420    
  0.97305024       0.0000000       1.0337390    
  0.82534766       0.0000000       1.2007354    
   1.3973141       0.0000000       1.8850046    
   2.2931805       0.0000000       1.8422587    
   2.5391326       0.0000000       1.1995449    
   1.4719826       0.0000000       1.0076134    
   1.4121914       0.0000000       1.3139846    
   2.1925304       0.0000000       1.6211156    
   1.0030434       0.0000000       1.1342283    
  0.71793449       0.0000000      0.88001239    
   2.1851456       0.0000000       1.5151629    
   2.4730489       0.0000000       1.4959708    
   2.8249497       0.0000000      0.99666226    
   2.5457838       0.0000000      0.91836441    
   2.9273658       0.0000000      0.89346611    
   1.3009846       0.0000000       1.7451520    
   1.1365852       0.0000000      0.85282445    
   2.4677062       0.0000000       1.4955816    
   2.7440524       0.0000000      0.84109223    
   1.6472521       0.0000000      0.93131757    
   1.7176585       0.0000000       2.0218768    
   1.8473151       0.0000000      0.99277675    
   1.6571426       0.0000000       1.7303960    
   2.8769155       0.0000000       1.5680997    
   1.0384121       0.0000000       1.9043629    
    </DataArray>                                                                                    
   </Points>                                                                                        
   <Cells>                                                                                          
    <DataArray type="Int32" Name="connectivity" format="ascii">                                     
           0
           1
           2
           3
           4
           5
           6
           7
           8
           9
          10
          11
          12
          13
          14
          15
          16
          17
          18
          19
          20
          21
          22
          23
          24
          25
          26
          27
          28
          29
          30
          31
          32
          33
          34
          35
          36
          37
          38
          39
          40
          41
          42
          43
          44
          45
          46
          47
          48
          49
          50
          51
          52
          53
          54
          55
          56
          57
          58
          59
          60
          61
          62
          63
          64
          65
          66
          67
          68
          69
          70
          71
          72
          73
          74
          75
          76
          77
          78
          79
          80
          81
          82
          83
          84
          85
          86
          87
          88
          89
          90
          91
          92
          93
          94
          95
          96
          97
          98
          99
         100
         101
         102
         103
         104
         105
         106
         107
         108
         109
         110
         111
         112
         113
         114
         115
         116
         117
    </DataArray>                                                                                    
    <DataArray type="Int32" Name="offsets" format="ascii">                                          
           1
           2
           3
           4
           5
           6
           7
           8
           9
          10
          11
          12
          13
          14
          15
          16
          17
          18
          19
          20
          21
          22
          23
          24
          25
          26
          27
          28
          29
          30
          31
          32
          33
          34
          35
          36
          37
          38
          39
          40
          41
          42
          43
          44
          45
          46
          47
          48
          49
          50
          51
          52
          53
          54
          55
          56
          57
          58
          59
          60
          61
          62
          63
          64
          65
          66
          67
          68
          69
          70
          71
          72
          73
          74
          75
          76
          77
          78
          79
          80
          81
          82
          83
          84
          85
          86
          87
          88
          89
          90
          91
          92
          93
          94
          95
          96
          97
          98
          99
         100
         101
         102
         103
         104
         105
         106
         107
         108
         109
         110
         111
         112
         113
         114
         115
         116
         117
         118
    </DataArray>                                                                                    
    <DataArray type="Int32" Name="types" format="ascii">                                            
           1
           1
           1
           1
           1
           1
           1
           1
           1
           1
           1
           1
           1
           1
           1
           1
           1
           1
           1
           1
           1
           1
           1
           1
           1
           1
           1
           1
           1
           1
           1
           1
           1
           1
           1
           1
           1
           1
           1
           1
           1
           1
           1
           1
           1
           1
           1
           1
           1
           1
           1
           1
           1
           1
           1
           1
           1
           1
           1
           1
           1
           1
           1
           1
           1
           1
           1
           1
           1
           1
           1
           1
           1
           1
           1
           1
           1
           1
           1
           1
           1
           1
           1
           1
           1
           1
           1
           1
           1
           1
           1
           1
           1
           1
           1
           1
           1
           1
           1
           1
           1
           1
           1
           1
           1
           1
           1
           1
           1
           1
           1
           1
           1
           1
           1
           1
           1
           1
    </DataArray>                                                                                    
   </Cells>                                                                                         
  </Piece>                                                                                          
 </UnstructuredGrid>                                                                                
</VTKFile>                                                                                          
