<?xml version="1.0"?>
<VTKFile type= "UnstructuredGrid"  version= "0.1"  byte_order= "BigEndian">                         
 <UnstructuredGrid>                                                                                 
  <Piece NumberOfPoints="118" NumberOfCells="118">                                                  
   <PointData Scalars="Pressure" Vectors="Velocity">                                                
    <DataArray type="Float32" Name="Pressures" format="ascii">                                      
   4829.5376    
   52403.090    
   87406.703    
   58407.516    
   35041.371    
   6086.2402    
   0.0000000    
   0.0000000    
   0.0000000    
   1260.7445    
   3126.2622    
   18670.186    
   5780.7246    
   2334.5471    
   2454.2319    
   0.0000000    
   0.0000000    
   0.0000000    
   0.0000000    
   0.0000000    
   0.0000000    
   0.0000000    
   0.0000000    
   0.0000000    
   0.0000000    
   0.0000000    
   0.0000000    
   0.0000000    
   0.0000000    
   0.0000000    
   0.0000000    
   0.0000000    
   0.0000000    
   0.0000000    
   0.0000000    
   0.0000000    
   97633.594    
   163004.75    
   98436.609    
   437484.53    
   120464.77    
   78512.211    
   8051.4800    
   26.898298    
   0.0000000    
   0.0000000    
   0.0000000    
   0.0000000    
   0.0000000    
   0.0000000    
   0.0000000    
   11792.946    
   56407.480    
   23994.609    
   30961.877    
   3718.0430    
   6269.0166    
   172.42136    
   13.565822    
   0.0000000    
   0.0000000    
   0.0000000    
   0.0000000    
   0.0000000    
   0.0000000    
   0.0000000    
   0.0000000    
   3064.6399    
   10008.021    
   8846.5713    
   107619.16    
   1504.5470    
   95806.789    
   2093.6599    
   49649.707    
   0.0000000    
   3.5083482    
   0.0000000    
   185.29227    
   0.0000000    
   12.864128    
   0.0000000    
   6.0811610    
   0.0000000    
   0.0000000    
   0.0000000    
   0.0000000    
   0.0000000    
   0.0000000    
   0.0000000    
   0.0000000    
   10681.160    
   7407.9556    
   12339.040    
   15113.726    
   18597.768    
   14240.915    
   3614.6887    
   2482.9817    
  -1794.3624    
   12542.958    
   7752.3081    
   18914.732    
   18039.703    
   3225.2126    
   11382.739    
   5025.6372    
   5557.3013    
   11775.744    
  -270.96460    
   3719.4622    
   15187.865    
   18961.980    
  -14244.337    
   18970.887    
  -10381.230    
   16296.961    
   16709.643    
    </DataArray>                                                                                    
    <DataArray type="Float32" Name="FM" format="ascii">                                             
  2.28881673E-03
  2.60721520E-03
  3.23106884E-03
  1.09660858E-03
 -1.30018406E-03
  3.35174322E-04
  6.05287823E-06
   0.0000000    
   0.0000000    
  5.20055299E-04
  9.89228021E-04
  2.98360479E-04
  1.02453399E-03
 -3.09511670E-04
 -1.50034961E-04
  8.26766094E-43
  1.37327250E-43
   0.0000000    
   0.0000000    
   0.0000000    
   0.0000000    
   0.0000000    
   0.0000000    
   0.0000000    
   0.0000000    
   0.0000000    
   0.0000000    
   0.0000000    
   0.0000000    
   0.0000000    
   0.0000000    
   0.0000000    
   0.0000000    
   0.0000000    
   0.0000000    
   0.0000000    
  1.13383010E-02
  6.22712774E-03
  2.02014819E-02
  2.31496338E-02
  6.02040952E-03
  7.70460814E-03
  3.07005760E-03
 -6.82471946E-05
  2.83118342E-41
   0.0000000    
   0.0000000    
   0.0000000    
   0.0000000    
   0.0000000    
   0.0000000    
  3.12989578E-03
  8.19940120E-03
  6.64896797E-03
  1.00746835E-02
  9.84868407E-03
  3.98487505E-03
  2.77463673E-03
 -1.56353548E-04
 -1.19690429E-37
 -4.86923190E-41
   0.0000000    
   0.0000000    
   0.0000000    
   0.0000000    
   0.0000000    
   0.0000000    
 -2.56397470E-04
 -1.33137545E-03
 -1.14456503E-04
  8.67586001E-04
  2.99874053E-04
  7.17695279E-04
  2.77118001E-04
  1.51331094E-03
  1.43862906E-40
 -7.40848282E-06
   0.0000000    
 -1.04426763E-05
 -9.52882956E-44
  3.42675366E-06
  9.52882956E-44
 -3.56284636E-06
   0.0000000    
  4.80981685E-41
   0.0000000    
   0.0000000    
   0.0000000    
   0.0000000    
   0.0000000    
  -0.0000000    
   125.76674    
   125.61256    
   125.46333    
   125.31027    
   125.15567    
   125.00000    
   125.75494    
   125.60624    
   125.46037    
   125.31038    
   125.15567    
   125.00000    
   125.75644    
   125.61089    
   125.46005    
   125.31018    
   125.15553    
   124.99989    
   125.76566    
   125.61221    
   125.46202    
   125.30890    
   125.15567    
   125.00012    
   125.61399    
   125.31004    
   125.00000    
    </DataArray>                                                                                    
    <DataArray type="Float32" Name="por" format="ascii">                                            
  0.69999999    
  0.69999999    
  0.69999999    
  0.69999999    
  0.69999999    
  0.69999999    
  0.69999999    
  0.69999999    
  0.69999999    
  0.69999999    
  0.69999999    
  0.69999999    
  0.69999999    
  0.69999999    
  0.69999999    
  0.69999999    
  0.69999999    
  0.69999999    
  0.69999999    
  0.69999999    
  0.69999999    
  0.69999999    
  0.69999999    
  0.69999999    
  0.69999999    
  0.69999999    
  0.69999999    
  0.69999999    
  0.69999999    
  0.69999999    
  0.69999999    
  0.69999999    
  0.69999999    
  0.69999999    
  0.69999999    
  0.69999999    
  0.69999999    
  0.69999999    
  0.69999999    
  0.69999999    
  0.69999999    
  0.69999999    
  0.69999999    
  0.69999999    
  0.69999999    
  0.69999999    
  0.69999999    
  0.69999999    
  0.69999999    
  0.69999999    
  0.69999999    
  0.69999999    
  0.69999999    
  0.69999999    
  0.69999999    
  0.69999999    
  0.69999999    
  0.69999999    
  0.69999999    
  0.69999999    
  0.69999999    
  0.69999999    
  0.69999999    
  0.69999999    
  0.69999999    
  0.69999999    
  0.69999999    
  0.69999999    
  0.69999999    
  0.69999999    
  0.69999999    
  0.69999999    
  0.69999999    
  0.69999999    
  0.69999999    
  0.69999999    
  0.69999999    
  0.69999999    
  0.69999999    
  0.69999999    
  0.69999999    
  0.69999999    
  0.69999999    
  0.69999999    
  0.69999999    
  0.69999999    
  0.69999999    
  0.69999999    
  0.69999999    
  0.69999999    
  0.69999999    
   1.0000000    
   1.0000000    
   1.0000000    
   1.0000000    
   1.0000000    
   1.0000000    
   1.0000000    
   1.0000000    
   1.0000000    
   1.0000000    
   1.0000000    
   1.0000000    
   1.0000000    
   1.0000000    
   1.0000000    
   1.0000000    
   1.0000000    
   1.0000000    
   1.0000000    
   1.0000000    
   1.0000000    
   1.0000000    
   1.0000000    
   1.0000000    
   1.0000000    
   1.0000000    
   1.0000000    
    </DataArray>                                                                                    
    <DataArray type="Float32" Name="Pcap" format="ascii">                                           
   999.99738    
   999.99695    
   999.99615    
   999.99872    
   1000.0015    
   999.99963    
   1000.0000    
   1000.0000    
   1000.0000    
   999.99939    
   999.99884    
   999.99963    
   999.99884    
   1000.0004    
   1000.0002    
   1000.0000    
   1000.0000    
   1000.0000    
   1000.0000    
   1000.0000    
   1000.0000    
   1000.0000    
   1000.0000    
   1000.0000    
   1000.0000    
   1000.0000    
   1000.0000    
   1000.0000    
   1000.0000    
   1000.0000    
   1000.0000    
   1000.0000    
   1000.0000    
   1000.0000    
   1000.0000    
   1000.0000    
   999.98651    
   999.99243    
   999.97589    
   999.96973    
   999.99274    
   999.99091    
   999.99646    
   1000.0001    
   1000.0000    
   1000.0000    
   1000.0000    
   1000.0000    
   1000.0000    
   1000.0000    
   1000.0000    
   999.99640    
   999.99036    
   999.99231    
   999.98834    
   999.98871    
   999.99542    
   999.99683    
   1000.0002    
   1000.0000    
   1000.0000    
   1000.0000    
   1000.0000    
   1000.0000    
   1000.0000    
   1000.0000    
   1000.0000    
   1000.0003    
   1000.0015    
   1000.0001    
   999.99896    
   999.99963    
   999.99915    
   999.99969    
   999.99823    
   1000.0000    
   1000.0000    
   1000.0000    
   1000.0000    
   1000.0000    
   1000.0000    
   1000.0000    
   1000.0000    
   1000.0000    
   1000.0000    
   1000.0000    
   1000.0000    
   1000.0000    
   1000.0000    
   1000.0000    
   1000.0000    
   0.0000000    
   0.0000000    
   0.0000000    
   0.0000000    
   0.0000000    
   0.0000000    
   0.0000000    
   0.0000000    
   0.0000000    
   0.0000000    
   0.0000000    
   0.0000000    
   0.0000000    
   0.0000000    
   0.0000000    
   0.0000000    
   0.0000000    
   0.0000000    
   0.0000000    
   0.0000000    
   0.0000000    
   0.0000000    
   0.0000000    
   0.0000000    
   0.0000000    
   0.0000000    
   0.0000000    
    </DataArray>                                                                                    
    <DataArray type="Float32" Name="Density" format="ascii">                                        
   1002.4436    
   1024.7877    
   1039.5383    
   1027.4097    
   1016.9711    
   1003.0736    
   1000.0000    
   1000.0000    
   1000.0000    
   1000.6414    
   1001.5858    
   1009.2549    
   1002.9207    
   1001.1857    
   1001.2462    
   1000.0000    
   1000.0000    
   1000.0000    
   1000.0000    
   1000.0000    
   1000.0000    
   1000.0000    
   1000.0000    
   1000.0000    
   1000.0000    
   1000.0000    
   1000.0000    
   1000.0000    
   1000.0000    
   1000.0000    
   1000.0000    
   1000.0000    
   1000.0000    
   1000.0000    
   1000.0000    
   1000.0000    
   1043.6205    
   1067.6799    
   1043.9370    
   1143.7751    
   1052.4025    
   1035.9082    
   1004.0541    
   1000.0137    
   1000.0000    
   1000.0000    
   1000.0000    
   1000.0000    
   1000.0000    
   1000.0000    
   1000.0000    
   1005.9050    
   1026.5408    
   1011.8033    
   1015.0811    
   1001.8844    
   1003.1650    
   1000.0879    
   1000.0070    
   1000.0000    
   1000.0000    
   1000.0000    
   1000.0000    
   1000.0000    
   1000.0000    
   1000.0000    
   1000.0000    
   1001.5547    
   1005.0245    
   1004.4491    
   1047.5159    
   1000.7651    
   1042.8983    
   1001.0637    
   1023.5718    
   1000.0000    
   1000.0018    
   1000.0000    
   1000.0944    
   1000.0000    
   1000.0066    
   1000.0000    
   1000.0031    
   1000.0000    
   1000.0000    
   1000.0000    
   1000.0000    
   1000.0000    
   1000.0000    
   1000.0000    
   1000.0000    
   1005.3572    
   1003.7336    
   1006.1735    
   1007.5309    
   1009.2200    
   1007.1052    
   1001.8322    
   1001.2607    
   999.08295    
   1006.2737    
   1003.9052    
   1009.3728    
   1008.9506    
   1001.6357    
   1005.7031    
   1002.5420    
   1002.8087    
   1005.8966    
   999.86182    
   1001.8850    
   1007.5671    
   1009.3956    
   992.57660    
   1009.3999    
   994.62286    
   1008.1064    
   1008.3067    
    </DataArray>                                                                                    
    <DataArray type="Float32" Name="u-Velocity" format="ascii">                                     
   0.0000000    
   0.0000000    
   0.0000000    
   0.0000000    
   0.0000000    
   0.0000000    
   0.0000000    
   0.0000000    
   0.0000000    
   0.0000000    
   0.0000000    
   0.0000000    
   0.0000000    
   0.0000000    
   0.0000000    
   0.0000000    
   0.0000000    
   0.0000000    
   0.0000000    
   0.0000000    
   0.0000000    
   0.0000000    
   0.0000000    
   0.0000000    
   0.0000000    
   0.0000000    
   0.0000000    
   0.0000000    
   0.0000000    
   0.0000000    
   0.0000000    
   0.0000000    
   0.0000000    
   0.0000000    
   0.0000000    
   0.0000000    
   0.0000000    
   0.0000000    
   0.0000000    
   0.0000000    
   0.0000000    
   0.0000000    
   0.0000000    
   0.0000000    
   0.0000000    
   0.0000000    
   0.0000000    
   0.0000000    
   0.0000000    
   0.0000000    
   0.0000000    
   0.0000000    
   0.0000000    
   0.0000000    
   0.0000000    
   0.0000000    
   0.0000000    
   0.0000000    
   0.0000000    
   0.0000000    
   0.0000000    
   0.0000000    
   0.0000000    
   0.0000000    
   0.0000000    
   0.0000000    
   0.0000000    
   0.0000000    
   0.0000000    
   0.0000000    
   0.0000000    
   0.0000000    
   0.0000000    
   0.0000000    
   0.0000000    
   0.0000000    
   0.0000000    
   0.0000000    
   0.0000000    
   0.0000000    
   0.0000000    
   0.0000000    
   0.0000000    
   0.0000000    
   0.0000000    
   0.0000000    
   0.0000000    
   0.0000000    
   0.0000000    
   0.0000000    
   0.0000000    
 -0.60711586    
 -0.84174132    
 -1.66660994E-02
  -1.1691182    
  0.55299938    
  0.32642734    
 -0.45398468    
 -0.47781670    
 -0.51583636    
  0.35881937    
  0.21453002    
 -0.76547647    
 -4.10190336E-02
 -0.25974002    
 -0.12512650    
 -0.42572922    
 -4.90904152E-02
  -1.6196529    
 -0.25864428    
   1.0180142    
  -2.0587401    
  0.50637174    
  0.84723288    
 -0.39509594    
 -0.61777353    
  -1.7525132    
 -0.93649793    
    </DataArray>                                                                                    
    <DataArray type="Float32" Name="w-Velocity" format="ascii">                                     
   0.0000000    
   0.0000000    
   0.0000000    
   0.0000000    
   0.0000000    
   0.0000000    
   0.0000000    
   0.0000000    
   0.0000000    
   0.0000000    
   0.0000000    
   0.0000000    
   0.0000000    
   0.0000000    
   0.0000000    
   0.0000000    
   0.0000000    
   0.0000000    
   0.0000000    
   0.0000000    
   0.0000000    
   0.0000000    
   0.0000000    
   0.0000000    
   0.0000000    
   0.0000000    
   0.0000000    
   0.0000000    
   0.0000000    
   0.0000000    
   0.0000000    
   0.0000000    
   0.0000000    
   0.0000000    
   0.0000000    
   0.0000000    
   0.0000000    
   0.0000000    
   0.0000000    
   0.0000000    
   0.0000000    
   0.0000000    
   0.0000000    
   0.0000000    
   0.0000000    
   0.0000000    
   0.0000000    
   0.0000000    
   0.0000000    
   0.0000000    
   0.0000000    
   0.0000000    
   0.0000000    
   0.0000000    
   0.0000000    
   0.0000000    
   0.0000000    
   0.0000000    
   0.0000000    
   0.0000000    
   0.0000000    
   0.0000000    
   0.0000000    
   0.0000000    
   0.0000000    
   0.0000000    
   0.0000000    
   0.0000000    
   0.0000000    
   0.0000000    
   0.0000000    
   0.0000000    
   0.0000000    
   0.0000000    
   0.0000000    
   0.0000000    
   0.0000000    
   0.0000000    
   0.0000000    
   0.0000000    
   0.0000000    
   0.0000000    
   0.0000000    
   0.0000000    
   0.0000000    
   0.0000000    
   0.0000000    
   0.0000000    
   0.0000000    
   0.0000000    
   0.0000000    
  0.61085528    
 -0.67513609    
  3.65259647E-02
 -0.66429144    
  -1.5574716    
 -0.19911015    
 -0.19630843    
 -0.64187104    
 -0.61585432    
 -0.28577620    
 -0.29545510    
 -0.83441740    
  0.12301302    
 -0.56588435    
  0.32445443    
  5.31521663E-02
  0.28886175    
  0.55328691    
  5.01338858E-03
  0.12342268    
  -1.6301284    
  7.41476417E-02
 -4.80677597E-02
  0.72632807    
 -0.26259652    
 -0.94281149    
 -0.74348933    
    </DataArray>                                                                                    
    <DataArray type="Float32" Name="Scalarplot" format="ascii">                                     
           1
           1
           1
           1
           1
           1
           1
           1
           1
           1
           1
           1
           1
           1
           1
           1
           1
           1
           1
           1
           1
           1
           1
           1
           1
           1
           1
           1
           1
           1
           1
           1
           1
           1
           1
           1
           1
           1
           1
           1
           1
           1
           1
           1
           1
           1
           1
           1
           1
           1
           1
           1
           1
           1
           1
           1
           1
           1
           1
           1
           1
           1
           1
           1
           1
           1
           1
           1
           1
           1
           1
           1
           1
           1
           1
           1
           1
           1
           1
           1
           1
           1
           1
           1
           1
           1
           1
           1
           1
           1
           1
           2
           2
           2
           2
           2
           2
           2
           2
           2
           2
           2
           2
           2
           2
           2
           2
           2
           2
           2
           2
           2
           2
           2
           2
           2
           2
           2
    </DataArray>                                                                                    
   </PointData>                                                                                     
   <Points>                                                                                         
    <DataArray type="Float32" NumberOfComponents="3" format="ascii">                                
   0.0000000       0.0000000       0.0000000    
   0.0000000       0.0000000      0.50000000    
   0.0000000       0.0000000       1.0000000    
   0.0000000       0.0000000       1.5000000    
   0.0000000       0.0000000       2.0000000    
   0.0000000       0.0000000       2.5000000    
   0.0000000       0.0000000       3.0000000    
   0.0000000       0.0000000       3.5000000    
   0.0000000       0.0000000       4.0000000    
 -0.25000000       0.0000000     -0.25000000    
 -0.25000000       0.0000000      0.25000000    
 -0.25000000       0.0000000      0.75000000    
 -0.25000000       0.0000000       1.2500000    
 -0.25000000       0.0000000       1.7500000    
 -0.25000000       0.0000000       2.2500000    
 -0.25000000       0.0000000       2.7500000    
 -0.25000000       0.0000000       3.2500000    
 -0.25000000       0.0000000       3.7500000    
   8.0000000       0.0000000       0.0000000    
   8.0000000       0.0000000      0.50000000    
   8.0000000       0.0000000       1.0000000    
   8.0000000       0.0000000       1.5000000    
   8.0000000       0.0000000       2.0000000    
   8.0000000       0.0000000       2.5000000    
   8.0000000       0.0000000       3.0000000    
   8.0000000       0.0000000       3.5000000    
   8.0000000       0.0000000       4.0000000    
   8.2500000       0.0000000     -0.25000000    
   8.2500000       0.0000000      0.25000000    
   8.2500000       0.0000000      0.75000000    
   8.2500000       0.0000000       1.2500000    
   8.2500000       0.0000000       1.7500000    
   8.2500000       0.0000000       2.2500000    
   8.2500000       0.0000000       2.7500000    
   8.2500000       0.0000000       3.2500000    
   8.2500000       0.0000000       3.7500000    
  0.50000000       0.0000000       0.0000000    
   1.0000000       0.0000000       0.0000000    
   1.5000000       0.0000000       0.0000000    
   2.0000000       0.0000000       0.0000000    
   2.5000000       0.0000000       0.0000000    
   3.0000000       0.0000000       0.0000000    
   3.5000000       0.0000000       0.0000000    
   4.0000000       0.0000000       0.0000000    
   4.5000000       0.0000000       0.0000000    
   5.0000000       0.0000000       0.0000000    
   5.5000000       0.0000000       0.0000000    
   6.0000000       0.0000000       0.0000000    
   6.5000000       0.0000000       0.0000000    
   7.0000000       0.0000000       0.0000000    
   7.5000000       0.0000000       0.0000000    
  0.25000000       0.0000000     -0.25000000    
  0.75000000       0.0000000     -0.25000000    
   1.2500000       0.0000000     -0.25000000    
   1.7500000       0.0000000     -0.25000000    
   2.2500000       0.0000000     -0.25000000    
   2.7500000       0.0000000     -0.25000000    
   3.2500000       0.0000000     -0.25000000    
   3.7500000       0.0000000     -0.25000000    
   4.2500000       0.0000000     -0.25000000    
   4.7500000       0.0000000     -0.25000000    
   5.2500000       0.0000000     -0.25000000    
   5.7500000       0.0000000     -0.25000000    
   6.2500000       0.0000000     -0.25000000    
   6.7500000       0.0000000     -0.25000000    
   7.2500000       0.0000000     -0.25000000    
   7.7500000       0.0000000     -0.25000000    
   4.0000000       0.0000000      0.50000000    
   3.7500000       0.0000000      0.25000000    
   4.0000000       0.0000000       1.0000000    
   3.7500000       0.0000000      0.75000000    
   4.0000000       0.0000000       1.5000000    
   3.7500000       0.0000000       1.2500000    
   4.0000000       0.0000000       2.0000000    
   3.7500000       0.0000000       1.7500000    
   4.5000000       0.0000000      0.50000000    
   4.2500000       0.0000000      0.25000000    
   4.5000000       0.0000000       1.0000000    
   4.2500000       0.0000000      0.75000000    
   4.5000000       0.0000000       1.5000000    
   4.2500000       0.0000000       1.2500000    
   4.5000000       0.0000000       2.0000000    
   4.2500000       0.0000000       1.7500000    
   5.0000000       0.0000000      0.50000000    
   4.7500000       0.0000000      0.25000000    
   5.0000000       0.0000000       1.0000000    
   4.7500000       0.0000000      0.75000000    
   5.0000000       0.0000000       1.5000000    
   4.7500000       0.0000000       1.2500000    
   5.0000000       0.0000000       2.0000000    
   4.7500000       0.0000000       1.7500000    
   2.5356128       0.0000000      0.86553907    
   1.3257097       0.0000000      0.84256101    
   1.7258937       0.0000000       1.0118374    
   2.0160389       0.0000000       1.9514940    
   2.5824242       0.0000000       1.6931933    
   2.8249989       0.0000000       1.4656363    
   2.6827025       0.0000000      0.88055015    
   1.1511079       0.0000000      0.89942181    
  0.94914544       0.0000000       1.0770371    
   2.4833624       0.0000000       1.3823556    
   1.2982055       0.0000000      0.80941463    
  0.70833504       0.0000000      0.79577649    
   2.0013769       0.0000000       1.1076821    
   2.7435358       0.0000000      0.91835570    
   2.8976364       0.0000000       1.1305648    
   2.2310483       0.0000000       1.5565675    
   2.9495387       0.0000000      0.82871211    
   1.8520401       0.0000000       1.4922988    
  0.81347394       0.0000000       1.1325485    
   2.6674714       0.0000000      0.88054395    
   2.0602350       0.0000000       1.6698895    
   2.1858814       0.0000000      0.94850779    
   1.0317920       0.0000000       1.4662030    
   1.7397523       0.0000000      0.93861985    
  0.91335607       0.0000000       1.2910123    
   2.0052605       0.0000000       2.0610161    
   2.6230481       0.0000000       1.9962239    
    </DataArray>                                                                                    
   </Points>                                                                                        
   <Cells>                                                                                          
    <DataArray type="Int32" Name="connectivity" format="ascii">                                     
           0
           1
           2
           3
           4
           5
           6
           7
           8
           9
          10
          11
          12
          13
          14
          15
          16
          17
          18
          19
          20
          21
          22
          23
          24
          25
          26
          27
          28
          29
          30
          31
          32
          33
          34
          35
          36
          37
          38
          39
          40
          41
          42
          43
          44
          45
          46
          47
          48
          49
          50
          51
          52
          53
          54
          55
          56
          57
          58
          59
          60
          61
          62
          63
          64
          65
          66
          67
          68
          69
          70
          71
          72
          73
          74
          75
          76
          77
          78
          79
          80
          81
          82
          83
          84
          85
          86
          87
          88
          89
          90
          91
          92
          93
          94
          95
          96
          97
          98
          99
         100
         101
         102
         103
         104
         105
         106
         107
         108
         109
         110
         111
         112
         113
         114
         115
         116
         117
    </DataArray>                                                                                    
    <DataArray type="Int32" Name="offsets" format="ascii">                                          
           1
           2
           3
           4
           5
           6
           7
           8
           9
          10
          11
          12
          13
          14
          15
          16
          17
          18
          19
          20
          21
          22
          23
          24
          25
          26
          27
          28
          29
          30
          31
          32
          33
          34
          35
          36
          37
          38
          39
          40
          41
          42
          43
          44
          45
          46
          47
          48
          49
          50
          51
          52
          53
          54
          55
          56
          57
          58
          59
          60
          61
          62
          63
          64
          65
          66
          67
          68
          69
          70
          71
          72
          73
          74
          75
          76
          77
          78
          79
          80
          81
          82
          83
          84
          85
          86
          87
          88
          89
          90
          91
          92
          93
          94
          95
          96
          97
          98
          99
         100
         101
         102
         103
         104
         105
         106
         107
         108
         109
         110
         111
         112
         113
         114
         115
         116
         117
         118
    </DataArray>                                                                                    
    <DataArray type="Int32" Name="types" format="ascii">                                            
           1
           1
           1
           1
           1
           1
           1
           1
           1
           1
           1
           1
           1
           1
           1
           1
           1
           1
           1
           1
           1
           1
           1
           1
           1
           1
           1
           1
           1
           1
           1
           1
           1
           1
           1
           1
           1
           1
           1
           1
           1
           1
           1
           1
           1
           1
           1
           1
           1
           1
           1
           1
           1
           1
           1
           1
           1
           1
           1
           1
           1
           1
           1
           1
           1
           1
           1
           1
           1
           1
           1
           1
           1
           1
           1
           1
           1
           1
           1
           1
           1
           1
           1
           1
           1
           1
           1
           1
           1
           1
           1
           1
           1
           1
           1
           1
           1
           1
           1
           1
           1
           1
           1
           1
           1
           1
           1
           1
           1
           1
           1
           1
           1
           1
           1
           1
           1
           1
    </DataArray>                                                                                    
   </Cells>                                                                                         
  </Piece>                                                                                          
 </UnstructuredGrid>                                                                                
</VTKFile>                                                                                          
