<?xml version="1.0"?>
<VTKFile type= "UnstructuredGrid"  version= "0.1"  byte_order= "BigEndian">                         
 <UnstructuredGrid>                                                                                 
  <Piece NumberOfPoints="118" NumberOfCells="118">                                                  
   <PointData Scalars="Pressure" Vectors="Velocity">                                                
    <DataArray type="Float32" Name="Pressures" format="ascii">                                      
   2779.8154    
   39120.828    
   26010.160    
   42230.078    
   40366.836    
   6833.2266    
   5.1455903    
   0.0000000    
   0.0000000    
   1260.7445    
   1576.9241    
   9887.7695    
   4681.7085    
   2175.8196    
   2983.9109    
   1.4033347    
   0.0000000    
   0.0000000    
   0.0000000    
   0.0000000    
   0.0000000    
   0.0000000    
   0.0000000    
   0.0000000    
   0.0000000    
   0.0000000    
   0.0000000    
   0.0000000    
   0.0000000    
   0.0000000    
   0.0000000    
   0.0000000    
   0.0000000    
   0.0000000    
   0.0000000    
   0.0000000    
   109608.60    
   138792.08    
   68200.469    
   425447.03    
   79589.930    
   109653.30    
   9372.0615    
   26.898298    
   0.0000000    
   0.0000000    
   0.0000000    
   0.0000000    
   0.0000000    
   0.0000000    
   0.0000000    
   11439.374    
   55515.156    
   18023.420    
   31497.031    
   2100.9568    
   10951.998    
   3934.7896    
   13.565822    
   0.0000000    
   0.0000000    
   0.0000000    
   0.0000000    
   0.0000000    
   0.0000000    
   0.0000000    
   0.0000000    
   307.00589    
   3885.7961    
   621.32990    
   57550.996    
   410.49808    
   43980.398    
   2097.1907    
   56830.293    
   0.0000000    
   3.5083482    
   0.0000000    
   179.67581    
   0.0000000    
   12.864128    
   0.0000000    
   6.0811610    
   0.0000000    
   0.0000000    
   0.0000000    
   0.0000000    
   0.0000000    
   0.0000000    
   0.0000000    
   0.0000000    
   10423.327    
   17231.357    
   2117.6702    
   2902.7295    
   4218.9517    
   2449.9905    
   10069.489    
   15802.146    
   14975.277    
   8648.9424    
   10206.929    
   22131.951    
   6337.6729    
   10067.078    
   5463.1226    
   1965.6351    
   13476.462    
   13502.030    
   16266.275    
   5752.4019    
   12824.516    
   5969.5254    
   12798.756    
   3946.6248    
   13333.317    
   17256.959    
   3764.1726    
    </DataArray>                                                                                    
    <DataArray type="Float32" Name="FM" format="ascii">                                             
  2.59475573E-03
  3.68427159E-03
  4.01811488E-03
  1.43657485E-03
 -1.96693139E-03
  5.19741036E-04
  3.82926046E-05
   0.0000000    
   0.0000000    
  5.20055299E-04
  1.18887844E-03
  5.99956489E-04
  1.24722905E-03
 -4.27581836E-04
 -1.85485667E-04
  1.74734741E-05
  9.01315172E-42
   0.0000000    
   0.0000000    
   0.0000000    
   0.0000000    
   0.0000000    
   0.0000000    
   0.0000000    
   0.0000000    
   0.0000000    
   0.0000000    
   0.0000000    
   0.0000000    
   0.0000000    
   0.0000000    
   0.0000000    
   0.0000000    
   0.0000000    
   0.0000000    
   0.0000000    
  1.33185256E-02
  7.97034800E-03
  2.32088380E-02
  2.68248189E-02
  8.76918249E-03
  1.04435962E-02
  4.35476471E-03
 -6.82471946E-05
  5.20346961E-40
 -2.09073731E-42
   0.0000000    
   0.0000000    
   0.0000000    
   0.0000000    
   0.0000000    
  3.43577750E-03
  9.49474424E-03
  7.54092447E-03
  1.14695914E-02
  1.14888344E-02
  5.68573922E-03
  3.96671006E-03
 -1.56353548E-04
 -1.90502298E-36
 -1.18448116E-39
   0.0000000    
   0.0000000    
   0.0000000    
   0.0000000    
   0.0000000    
   0.0000000    
 -4.67614620E-04
 -2.06676079E-03
 -1.25456078E-04
  1.04064867E-03
  4.96552268E-04
  1.21827680E-03
  3.31685704E-04
  2.36744736E-03
  3.48959751E-39
 -7.40848282E-06
 -2.81100472E-42
 -2.05516280E-05
 -1.14514111E-41
  6.49039976E-06
  1.10338241E-41
 -3.56284636E-06
  1.91697630E-42
  1.17117443E-39
  -0.0000000    
  2.11596068E-42
 -8.22281939E-42
 -7.99580904E-42
  7.76039090E-42
 -3.08285662E-44
   125.76656    
   125.61256    
   125.46323    
   125.31027    
   125.15567    
   125.00000    
   125.75461    
   125.60624    
   125.46037    
   125.31038    
   125.15535    
   125.00000    
   125.75644    
   125.61059    
   125.46005    
   125.31018    
   125.15553    
   125.00612    
   125.76566    
   125.61228    
   125.46202    
   125.30890    
   125.15567    
   125.00012    
   125.60780    
   125.31004    
   125.00000    
    </DataArray>                                                                                    
    <DataArray type="Float32" Name="por" format="ascii">                                            
  0.69999999    
  0.69999999    
  0.69999999    
  0.69999999    
  0.69999999    
  0.69999999    
  0.69999999    
  0.69999999    
  0.69999999    
  0.69999999    
  0.69999999    
  0.69999999    
  0.69999999    
  0.69999999    
  0.69999999    
  0.69999999    
  0.69999999    
  0.69999999    
  0.69999999    
  0.69999999    
  0.69999999    
  0.69999999    
  0.69999999    
  0.69999999    
  0.69999999    
  0.69999999    
  0.69999999    
  0.69999999    
  0.69999999    
  0.69999999    
  0.69999999    
  0.69999999    
  0.69999999    
  0.69999999    
  0.69999999    
  0.69999999    
  0.69999999    
  0.69999999    
  0.69999999    
  0.69999999    
  0.69999999    
  0.69999999    
  0.69999999    
  0.69999999    
  0.69999999    
  0.69999999    
  0.69999999    
  0.69999999    
  0.69999999    
  0.69999999    
  0.69999999    
  0.69999999    
  0.69999999    
  0.69999999    
  0.69999999    
  0.69999999    
  0.69999999    
  0.69999999    
  0.69999999    
  0.69999999    
  0.69999999    
  0.69999999    
  0.69999999    
  0.69999999    
  0.69999999    
  0.69999999    
  0.69999999    
  0.69999999    
  0.69999999    
  0.69999999    
  0.69999999    
  0.69999999    
  0.69999999    
  0.69999999    
  0.69999999    
  0.69999999    
  0.69999999    
  0.69999999    
  0.69999999    
  0.69999999    
  0.69999999    
  0.69999999    
  0.69999999    
  0.69999999    
  0.69999999    
  0.69999999    
  0.69999999    
  0.69999999    
  0.69999999    
  0.69999999    
  0.69999999    
   1.0000000    
   1.0000000    
   1.0000000    
   1.0000000    
   1.0000000    
   1.0000000    
   1.0000000    
   1.0000000    
   1.0000000    
   1.0000000    
   1.0000000    
   1.0000000    
   1.0000000    
   1.0000000    
   1.0000000    
   1.0000000    
   1.0000000    
   1.0000000    
   1.0000000    
   1.0000000    
   1.0000000    
   1.0000000    
   1.0000000    
   1.0000000    
   1.0000000    
   1.0000000    
   1.0000000    
    </DataArray>                                                                                    
    <DataArray type="Float32" Name="Pcap" format="ascii">                                           
   999.99701    
   999.99573    
   999.99536    
   999.99835    
   1000.0023    
   999.99939    
   999.99994    
   1000.0000    
   1000.0000    
   999.99939    
   999.99866    
   999.99933    
   999.99860    
   1000.0005    
   1000.0002    
   1000.0000    
   1000.0000    
   1000.0000    
   1000.0000    
   1000.0000    
   1000.0000    
   1000.0000    
   1000.0000    
   1000.0000    
   1000.0000    
   1000.0000    
   1000.0000    
   1000.0000    
   1000.0000    
   1000.0000    
   1000.0000    
   1000.0000    
   1000.0000    
   1000.0000    
   1000.0000    
   1000.0000    
   999.98407    
   999.99036    
   999.97266    
   999.96503    
   999.98962    
   999.98749    
   999.99500    
   1000.0001    
   1000.0000    
   1000.0000    
   1000.0000    
   1000.0000    
   1000.0000    
   1000.0000    
   1000.0000    
   999.99603    
   999.98889    
   999.99133    
   999.98669    
   999.98688    
   999.99347    
   999.99548    
   1000.0002    
   1000.0000    
   1000.0000    
   1000.0000    
   1000.0000    
   1000.0000    
   1000.0000    
   1000.0000    
   1000.0000    
   1000.0005    
   1000.0024    
   1000.0001    
   999.99878    
   999.99945    
   999.99860    
   999.99963    
   999.99725    
   1000.0000    
   1000.0000    
   1000.0000    
   1000.0000    
   1000.0000    
   1000.0000    
   1000.0000    
   1000.0000    
   1000.0000    
   1000.0000    
   1000.0000    
   1000.0000    
   1000.0000    
   1000.0000    
   1000.0000    
   1000.0000    
   0.0000000    
   0.0000000    
   0.0000000    
   0.0000000    
   0.0000000    
   0.0000000    
   0.0000000    
   0.0000000    
   0.0000000    
   0.0000000    
   0.0000000    
   0.0000000    
   0.0000000    
   0.0000000    
   0.0000000    
   0.0000000    
   0.0000000    
   0.0000000    
   0.0000000    
   0.0000000    
   0.0000000    
   0.0000000    
   0.0000000    
   0.0000000    
   0.0000000    
   0.0000000    
   0.0000000    
    </DataArray>                                                                                    
    <DataArray type="Float32" Name="Density" format="ascii">                                        
   1001.4109    
   1018.8403    
   1012.7582    
   1020.2512    
   1019.4071    
   1003.4469    
   1000.0026    
   1000.0000    
   1000.0000    
   1000.6414    
   1000.8018    
   1004.9651    
   1002.3693    
   1001.1053    
   1001.5139    
   1000.0007    
   1000.0000    
   1000.0000    
   1000.0000    
   1000.0000    
   1000.0000    
   1000.0000    
   1000.0000    
   1000.0000    
   1000.0000    
   1000.0000    
   1000.0000    
   1000.0000    
   1000.0000    
   1000.0000    
   1000.0000    
   1000.0000    
   1000.0000    
   1000.0000    
   1000.0000    
   1000.0000    
   1048.2816    
   1059.1470    
   1031.6018    
   1141.0149    
   1036.3522    
   1048.2988    
   1004.7097    
   1000.0137    
   1000.0000    
   1000.0000    
   1000.0000    
   1000.0000    
   1000.0000    
   1000.0000    
   1000.0000    
   1005.7310    
   1026.1516    
   1008.9427    
   1015.3302    
   1001.0674    
   1005.4907    
   1001.9935    
   1000.0070    
   1000.0000    
   1000.0000    
   1000.0000    
   1000.0000    
   1000.0000    
   1000.0000    
   1000.0000    
   1000.0000    
   1000.1564    
   1001.9689    
   1000.3164    
   1027.0381    
   1000.2091    
   1021.0404    
   1001.0656    
   1026.7249    
   1000.0000    
   1000.0018    
   1000.0000    
   1000.0916    
   1000.0000    
   1000.0066    
   1000.0000    
   1000.0031    
   1000.0000    
   1000.0000    
   1000.0000    
   1000.0000    
   1000.0000    
   1000.0000    
   1000.0000    
   1000.0000    
   1005.2298    
   1008.5596    
   1001.0759    
   1001.4729    
   1002.1365    
   1001.2441    
   1005.0549    
   1007.8660    
   1007.4635    
   1004.3510    
   1005.1229    
   1010.9163    
   1003.1993    
   1005.0538    
   1002.7615    
   1000.9989    
   1006.7313    
   1006.7438    
   1008.0916    
   1002.9065    
   1006.4118    
   1003.0151    
   1006.3992    
   1001.9995    
   1006.6612    
   1008.5720    
   1001.9076    
    </DataArray>                                                                                    
    <DataArray type="Float32" Name="u-Velocity" format="ascii">                                     
   0.0000000    
   0.0000000    
   0.0000000    
   0.0000000    
   0.0000000    
   0.0000000    
   0.0000000    
   0.0000000    
   0.0000000    
   0.0000000    
   0.0000000    
   0.0000000    
   0.0000000    
   0.0000000    
   0.0000000    
   0.0000000    
   0.0000000    
   0.0000000    
   0.0000000    
   0.0000000    
   0.0000000    
   0.0000000    
   0.0000000    
   0.0000000    
   0.0000000    
   0.0000000    
   0.0000000    
   0.0000000    
   0.0000000    
   0.0000000    
   0.0000000    
   0.0000000    
   0.0000000    
   0.0000000    
   0.0000000    
   0.0000000    
   0.0000000    
   0.0000000    
   0.0000000    
   0.0000000    
   0.0000000    
   0.0000000    
   0.0000000    
   0.0000000    
   0.0000000    
   0.0000000    
   0.0000000    
   0.0000000    
   0.0000000    
   0.0000000    
   0.0000000    
   0.0000000    
   0.0000000    
   0.0000000    
   0.0000000    
   0.0000000    
   0.0000000    
   0.0000000    
   0.0000000    
   0.0000000    
   0.0000000    
   0.0000000    
   0.0000000    
   0.0000000    
   0.0000000    
   0.0000000    
   0.0000000    
   0.0000000    
   0.0000000    
   0.0000000    
   0.0000000    
   0.0000000    
   0.0000000    
   0.0000000    
   0.0000000    
   0.0000000    
   0.0000000    
   0.0000000    
   0.0000000    
   0.0000000    
   0.0000000    
   0.0000000    
   0.0000000    
   0.0000000    
   0.0000000    
   0.0000000    
   0.0000000    
   0.0000000    
   0.0000000    
   0.0000000    
   0.0000000    
  0.38968563    
  0.21827039    
  0.41941667    
   2.1600447    
  0.27569953    
   1.2731700    
 -0.34236312    
  0.51541632    
 -0.96382445    
  0.32680431    
 -0.14615196    
 -0.80143631    
  1.57083757E-02
 -0.26508042    
  0.39218888    
 -0.81616700    
 -0.63543051    
 -0.13141088    
 -2.18907744E-02
 -0.68857789    
 -8.10417086E-02
  0.32335564    
   1.0631467    
 -0.34527254    
  0.25120342    
 -0.24201393    
  0.68321615    
    </DataArray>                                                                                    
    <DataArray type="Float32" Name="w-Velocity" format="ascii">                                     
   0.0000000    
   0.0000000    
   0.0000000    
   0.0000000    
   0.0000000    
   0.0000000    
   0.0000000    
   0.0000000    
   0.0000000    
   0.0000000    
   0.0000000    
   0.0000000    
   0.0000000    
   0.0000000    
   0.0000000    
   0.0000000    
   0.0000000    
   0.0000000    
   0.0000000    
   0.0000000    
   0.0000000    
   0.0000000    
   0.0000000    
   0.0000000    
   0.0000000    
   0.0000000    
   0.0000000    
   0.0000000    
   0.0000000    
   0.0000000    
   0.0000000    
   0.0000000    
   0.0000000    
   0.0000000    
   0.0000000    
   0.0000000    
   0.0000000    
   0.0000000    
   0.0000000    
   0.0000000    
   0.0000000    
   0.0000000    
   0.0000000    
   0.0000000    
   0.0000000    
   0.0000000    
   0.0000000    
   0.0000000    
   0.0000000    
   0.0000000    
   0.0000000    
   0.0000000    
   0.0000000    
   0.0000000    
   0.0000000    
   0.0000000    
   0.0000000    
   0.0000000    
   0.0000000    
   0.0000000    
   0.0000000    
   0.0000000    
   0.0000000    
   0.0000000    
   0.0000000    
   0.0000000    
   0.0000000    
   0.0000000    
   0.0000000    
   0.0000000    
   0.0000000    
   0.0000000    
   0.0000000    
   0.0000000    
   0.0000000    
   0.0000000    
   0.0000000    
   0.0000000    
   0.0000000    
   0.0000000    
   0.0000000    
   0.0000000    
   0.0000000    
   0.0000000    
   0.0000000    
   0.0000000    
   0.0000000    
   0.0000000    
   0.0000000    
   0.0000000    
   0.0000000    
  0.54010063    
  0.37588441    
  0.35965595    
  0.31865060    
   1.2626369    
  0.54374290    
 -4.18822505E-02
 -0.90906435    
  0.14410651    
 -0.34532258    
 -0.42030802    
  0.47405994    
  8.45384449E-02
  0.21618658    
  0.50903881    
 -0.36645091    
 -0.17173341    
  0.46939841    
  0.32463032    
  0.98826480    
  0.20553693    
 -0.29764301    
 -0.80537927    
 -0.13910875    
  0.45128688    
 -0.97549009    
 -0.92463607    
    </DataArray>                                                                                    
    <DataArray type="Float32" Name="Scalarplot" format="ascii">                                     
           1
           1
           1
           1
           1
           1
           1
           1
           1
           1
           1
           1
           1
           1
           1
           1
           1
           1
           1
           1
           1
           1
           1
           1
           1
           1
           1
           1
           1
           1
           1
           1
           1
           1
           1
           1
           1
           1
           1
           1
           1
           1
           1
           1
           1
           1
           1
           1
           1
           1
           1
           1
           1
           1
           1
           1
           1
           1
           1
           1
           1
           1
           1
           1
           1
           1
           1
           1
           1
           1
           1
           1
           1
           1
           1
           1
           1
           1
           1
           1
           1
           1
           1
           1
           1
           1
           1
           1
           1
           1
           1
           2
           2
           2
           2
           2
           2
           2
           2
           2
           2
           2
           2
           2
           2
           2
           2
           2
           2
           2
           2
           2
           2
           2
           2
           2
           2
           2
    </DataArray>                                                                                    
   </PointData>                                                                                     
   <Points>                                                                                         
    <DataArray type="Float32" NumberOfComponents="3" format="ascii">                                
   0.0000000       0.0000000       0.0000000    
   0.0000000       0.0000000      0.50000000    
   0.0000000       0.0000000       1.0000000    
   0.0000000       0.0000000       1.5000000    
   0.0000000       0.0000000       2.0000000    
   0.0000000       0.0000000       2.5000000    
   0.0000000       0.0000000       3.0000000    
   0.0000000       0.0000000       3.5000000    
   0.0000000       0.0000000       4.0000000    
 -0.25000000       0.0000000     -0.25000000    
 -0.25000000       0.0000000      0.25000000    
 -0.25000000       0.0000000      0.75000000    
 -0.25000000       0.0000000       1.2500000    
 -0.25000000       0.0000000       1.7500000    
 -0.25000000       0.0000000       2.2500000    
 -0.25000000       0.0000000       2.7500000    
 -0.25000000       0.0000000       3.2500000    
 -0.25000000       0.0000000       3.7500000    
   8.0000000       0.0000000       0.0000000    
   8.0000000       0.0000000      0.50000000    
   8.0000000       0.0000000       1.0000000    
   8.0000000       0.0000000       1.5000000    
   8.0000000       0.0000000       2.0000000    
   8.0000000       0.0000000       2.5000000    
   8.0000000       0.0000000       3.0000000    
   8.0000000       0.0000000       3.5000000    
   8.0000000       0.0000000       4.0000000    
   8.2500000       0.0000000     -0.25000000    
   8.2500000       0.0000000      0.25000000    
   8.2500000       0.0000000      0.75000000    
   8.2500000       0.0000000       1.2500000    
   8.2500000       0.0000000       1.7500000    
   8.2500000       0.0000000       2.2500000    
   8.2500000       0.0000000       2.7500000    
   8.2500000       0.0000000       3.2500000    
   8.2500000       0.0000000       3.7500000    
  0.50000000       0.0000000       0.0000000    
   1.0000000       0.0000000       0.0000000    
   1.5000000       0.0000000       0.0000000    
   2.0000000       0.0000000       0.0000000    
   2.5000000       0.0000000       0.0000000    
   3.0000000       0.0000000       0.0000000    
   3.5000000       0.0000000       0.0000000    
   4.0000000       0.0000000       0.0000000    
   4.5000000       0.0000000       0.0000000    
   5.0000000       0.0000000       0.0000000    
   5.5000000       0.0000000       0.0000000    
   6.0000000       0.0000000       0.0000000    
   6.5000000       0.0000000       0.0000000    
   7.0000000       0.0000000       0.0000000    
   7.5000000       0.0000000       0.0000000    
  0.25000000       0.0000000     -0.25000000    
  0.75000000       0.0000000     -0.25000000    
   1.2500000       0.0000000     -0.25000000    
   1.7500000       0.0000000     -0.25000000    
   2.2500000       0.0000000     -0.25000000    
   2.7500000       0.0000000     -0.25000000    
   3.2500000       0.0000000     -0.25000000    
   3.7500000       0.0000000     -0.25000000    
   4.2500000       0.0000000     -0.25000000    
   4.7500000       0.0000000     -0.25000000    
   5.2500000       0.0000000     -0.25000000    
   5.7500000       0.0000000     -0.25000000    
   6.2500000       0.0000000     -0.25000000    
   6.7500000       0.0000000     -0.25000000    
   7.2500000       0.0000000     -0.25000000    
   7.7500000       0.0000000     -0.25000000    
   4.0000000       0.0000000      0.50000000    
   3.7500000       0.0000000      0.25000000    
   4.0000000       0.0000000       1.0000000    
   3.7500000       0.0000000      0.75000000    
   4.0000000       0.0000000       1.5000000    
   3.7500000       0.0000000       1.2500000    
   4.0000000       0.0000000       2.0000000    
   3.7500000       0.0000000       1.7500000    
   4.5000000       0.0000000      0.50000000    
   4.2500000       0.0000000      0.25000000    
   4.5000000       0.0000000       1.0000000    
   4.2500000       0.0000000      0.75000000    
   4.5000000       0.0000000       1.5000000    
   4.2500000       0.0000000       1.2500000    
   4.5000000       0.0000000       2.0000000    
   4.2500000       0.0000000       1.7500000    
   5.0000000       0.0000000      0.50000000    
   4.7500000       0.0000000      0.25000000    
   5.0000000       0.0000000       1.0000000    
   4.7500000       0.0000000      0.75000000    
   5.0000000       0.0000000       1.5000000    
   4.7500000       0.0000000       1.2500000    
   5.0000000       0.0000000       2.0000000    
   4.7500000       0.0000000       1.7500000    
   2.7715871       0.0000000      0.88450372    
  0.87110090       0.0000000       1.3215955    
   1.7461319       0.0000000      0.94237447    
   2.5552928       0.0000000       1.7906439    
   2.8225269       0.0000000       1.6057688    
   2.6320152       0.0000000       1.7644119    
   2.7827983       0.0000000      0.93462229    
  0.88852203       0.0000000      0.94655287    
  0.92804646       0.0000000      0.92295313    
   2.8617189       0.0000000       1.2183493    
   1.2090932       0.0000000      0.88205767    
  0.69348562       0.0000000      0.86293411    
   2.1314509       0.0000000       1.0182258    
   2.7460110       0.0000000      0.89717901    
   2.7454071       0.0000000       1.4478499    
   1.6124434       0.0000000      0.88688672    
   2.8752804       0.0000000      0.78913784    
   1.0435262       0.0000000       1.5310194    
  0.88869596       0.0000000       1.4266731    
   2.4563279       0.0000000       1.0215911    
   1.6242783       0.0000000       1.1848309    
   2.2700856       0.0000000      0.94643915    
   2.0934482       0.0000000       1.7199790    
   1.4838240       0.0000000      0.84339321    
   1.0702553       0.0000000       1.5295246    
   1.8230649       0.0000000       1.6132495    
   2.1715434       0.0000000       1.9774852    
    </DataArray>                                                                                    
   </Points>                                                                                        
   <Cells>                                                                                          
    <DataArray type="Int32" Name="connectivity" format="ascii">                                     
           0
           1
           2
           3
           4
           5
           6
           7
           8
           9
          10
          11
          12
          13
          14
          15
          16
          17
          18
          19
          20
          21
          22
          23
          24
          25
          26
          27
          28
          29
          30
          31
          32
          33
          34
          35
          36
          37
          38
          39
          40
          41
          42
          43
          44
          45
          46
          47
          48
          49
          50
          51
          52
          53
          54
          55
          56
          57
          58
          59
          60
          61
          62
          63
          64
          65
          66
          67
          68
          69
          70
          71
          72
          73
          74
          75
          76
          77
          78
          79
          80
          81
          82
          83
          84
          85
          86
          87
          88
          89
          90
          91
          92
          93
          94
          95
          96
          97
          98
          99
         100
         101
         102
         103
         104
         105
         106
         107
         108
         109
         110
         111
         112
         113
         114
         115
         116
         117
    </DataArray>                                                                                    
    <DataArray type="Int32" Name="offsets" format="ascii">                                          
           1
           2
           3
           4
           5
           6
           7
           8
           9
          10
          11
          12
          13
          14
          15
          16
          17
          18
          19
          20
          21
          22
          23
          24
          25
          26
          27
          28
          29
          30
          31
          32
          33
          34
          35
          36
          37
          38
          39
          40
          41
          42
          43
          44
          45
          46
          47
          48
          49
          50
          51
          52
          53
          54
          55
          56
          57
          58
          59
          60
          61
          62
          63
          64
          65
          66
          67
          68
          69
          70
          71
          72
          73
          74
          75
          76
          77
          78
          79
          80
          81
          82
          83
          84
          85
          86
          87
          88
          89
          90
          91
          92
          93
          94
          95
          96
          97
          98
          99
         100
         101
         102
         103
         104
         105
         106
         107
         108
         109
         110
         111
         112
         113
         114
         115
         116
         117
         118
    </DataArray>                                                                                    
    <DataArray type="Int32" Name="types" format="ascii">                                            
           1
           1
           1
           1
           1
           1
           1
           1
           1
           1
           1
           1
           1
           1
           1
           1
           1
           1
           1
           1
           1
           1
           1
           1
           1
           1
           1
           1
           1
           1
           1
           1
           1
           1
           1
           1
           1
           1
           1
           1
           1
           1
           1
           1
           1
           1
           1
           1
           1
           1
           1
           1
           1
           1
           1
           1
           1
           1
           1
           1
           1
           1
           1
           1
           1
           1
           1
           1
           1
           1
           1
           1
           1
           1
           1
           1
           1
           1
           1
           1
           1
           1
           1
           1
           1
           1
           1
           1
           1
           1
           1
           1
           1
           1
           1
           1
           1
           1
           1
           1
           1
           1
           1
           1
           1
           1
           1
           1
           1
           1
           1
           1
           1
           1
           1
           1
           1
           1
    </DataArray>                                                                                    
   </Cells>                                                                                         
  </Piece>                                                                                          
 </UnstructuredGrid>                                                                                
</VTKFile>                                                                                          
