<?xml version="1.0"?>
<VTKFile type= "UnstructuredGrid"  version= "0.1"  byte_order= "BigEndian">                         
 <UnstructuredGrid>                                                                                 
  <Piece NumberOfPoints="2923" NumberOfCells="2923">                                                
   <PointData Scalars="Pressure" Vectors="Velocity">                                                
    <DataArray type="Float32" Name="Pressures" format="ascii">                                      
   8872.5137    
   13125.035    
   28324.059    
   16673.760    
   28562.648    
   23735.725    
   27351.260    
   23657.494    
   24686.648    
   23327.211    
   23390.838    
   21486.494    
   20305.645    
   18419.881    
   18031.314    
   16279.285    
   15597.020    
   14539.503    
   13734.664    
   12683.587    
   11833.171    
   11155.329    
   8273.6963    
   9474.0811    
   5465.9761    
   5034.6616    
   5932.3760    
   512.38318    
   3641.8840    
   1373.6979    
  -1082.1620    
   17.776018    
   4.9116983    
   39.763485    
   349.61636    
   91.697197    
   1.1694453    
   31.576490    
   85.848396    
   52.161324    
   4.4439139    
   42.570503    
  0.93555588    
   0.0000000    
   0.0000000    
   0.0000000    
   0.0000000    
   0.0000000    
   0.0000000    
   0.0000000    
   0.0000000    
   0.0000000    
   0.0000000    
   0.0000000    
   0.0000000    
   0.0000000    
   0.0000000    
   0.0000000    
   0.0000000    
   0.0000000    
   0.0000000    
   0.0000000    
   0.0000000    
   0.0000000    
   0.0000000    
   0.0000000    
   0.0000000    
   0.0000000    
   0.0000000    
   0.0000000    
   0.0000000    
   0.0000000    
   0.0000000    
   0.0000000    
   0.0000000    
   0.0000000    
   0.0000000    
   0.0000000    
   0.0000000    
   0.0000000    
   0.0000000    
   1273.6582    
   631.17206    
   1939.9891    
   5835.7109    
   11516.838    
   9765.8740    
   10661.115    
   11065.616    
   9470.9531    
   8600.4541    
   8942.9063    
   9850.6660    
   9625.9648    
   9507.0518    
   8646.7822    
   8525.8135    
   7891.6812    
   7678.3345    
   6700.2593    
   5979.2900    
   5114.7036    
   4417.0615    
   3197.1067    
   1516.0604    
   1750.6467    
  -1.1694411    
   1212.6161    
   635.85889    
   281.02094    
   6844.4487    
   136.61949    
  -32.158104    
   3.0405662    
   30.406935    
   2.1050045    
   65.261436    
   123.98447    
   100.82154    
   11.694640    
   32.746048    
   25.260948    
  0.70166665    
   2.1050045    
   0.0000000    
   0.0000000    
   0.0000000    
   0.0000000    
   0.0000000    
   0.0000000    
   0.0000000    
   0.0000000    
   0.0000000    
   0.0000000    
   0.0000000    
   0.0000000    
   0.0000000    
   0.0000000    
   0.0000000    
   0.0000000    
   0.0000000    
   0.0000000    
   0.0000000    
   0.0000000    
   0.0000000    
   0.0000000    
   0.0000000    
   0.0000000    
   0.0000000    
   0.0000000    
   0.0000000    
   0.0000000    
   0.0000000    
   0.0000000    
   0.0000000    
   0.0000000    
   0.0000000    
   0.0000000    
   0.0000000    
   0.0000000    
   0.0000000    
   0.0000000    
   0.0000000    
   0.0000000    
   0.0000000    
   0.0000000    
   0.0000000    
   0.0000000    
   0.0000000    
   0.0000000    
   0.0000000    
   0.0000000    
   0.0000000    
   0.0000000    
   0.0000000    
   0.0000000    
   0.0000000    
   0.0000000    
   0.0000000    
   0.0000000    
   0.0000000    
   0.0000000    
   0.0000000    
   0.0000000    
   0.0000000    
   0.0000000    
   0.0000000    
   0.0000000    
   0.0000000    
   0.0000000    
   0.0000000    
   0.0000000    
   0.0000000    
   0.0000000    
   0.0000000    
   0.0000000    
   0.0000000    
   0.0000000    
   0.0000000    
   0.0000000    
   0.0000000    
   0.0000000    
   0.0000000    
   0.0000000    
   0.0000000    
   0.0000000    
   0.0000000    
   0.0000000    
   0.0000000    
   0.0000000    
   0.0000000    
   0.0000000    
   0.0000000    
   0.0000000    
   0.0000000    
   0.0000000    
   0.0000000    
   0.0000000    
   0.0000000    
   0.0000000    
   0.0000000    
   0.0000000    
   0.0000000    
   0.0000000    
   0.0000000    
   0.0000000    
   0.0000000    
   0.0000000    
   0.0000000    
   0.0000000    
   0.0000000    
   0.0000000    
   0.0000000    
   0.0000000    
   0.0000000    
   0.0000000    
   0.0000000    
   0.0000000    
   0.0000000    
   0.0000000    
   0.0000000    
   0.0000000    
   0.0000000    
   0.0000000    
   0.0000000    
   0.0000000    
   0.0000000    
   0.0000000    
   0.0000000    
   0.0000000    
   0.0000000    
   0.0000000    
   0.0000000    
   0.0000000    
   0.0000000    
   0.0000000    
   0.0000000    
   0.0000000    
   0.0000000    
   0.0000000    
   0.0000000    
   0.0000000    
   0.0000000    
   0.0000000    
   0.0000000    
   0.0000000    
   0.0000000    
   0.0000000    
   0.0000000    
   0.0000000    
   0.0000000    
   0.0000000    
   0.0000000    
   0.0000000    
   0.0000000    
   0.0000000    
   0.0000000    
   0.0000000    
   0.0000000    
   0.0000000    
   0.0000000    
   0.0000000    
   0.0000000    
   0.0000000    
   0.0000000    
   0.0000000    
   0.0000000    
   0.0000000    
   0.0000000    
   0.0000000    
   0.0000000    
   0.0000000    
   0.0000000    
   0.0000000    
   0.0000000    
   0.0000000    
   0.0000000    
   0.0000000    
   0.0000000    
   0.0000000    
   0.0000000    
   0.0000000    
   0.0000000    
   0.0000000    
   0.0000000    
   0.0000000    
   0.0000000    
   0.0000000    
   0.0000000    
   0.0000000    
   0.0000000    
   0.0000000    
   0.0000000    
   0.0000000    
   0.0000000    
   0.0000000    
   0.0000000    
   0.0000000    
   0.0000000    
   0.0000000    
   0.0000000    
   0.0000000    
   0.0000000    
   0.0000000    
   12187.152    
   4377.9517    
   1513.4758    
   4858.0195    
   1293.1471    
   2355.5125    
   1402.8232    
   5753.1157    
   5465.5005    
   6904.1479    
   6289.5166    
   4445.2710    
   686.48096    
   1121.0741    
   1218.7197    
   791.96869    
   6974.8457    
   2.5727851    
   5502.5981    
   1719.6097    
   11364.832    
   47917.891    
   100981.69    
   73620.375    
   73961.859    
   83353.703    
   97612.742    
   104222.37    
   15760.719    
   50.289921    
   0.0000000    
   0.0000000    
   0.0000000    
   0.0000000    
   0.0000000    
   0.0000000    
   0.0000000    
   0.0000000    
   0.0000000    
   0.0000000    
   0.0000000    
   0.0000000    
   0.0000000    
   0.0000000    
   0.0000000    
   0.0000000    
   0.0000000    
   0.0000000    
   0.0000000    
   0.0000000    
   0.0000000    
   0.0000000    
   0.0000000    
   0.0000000    
   0.0000000    
   0.0000000    
   0.0000000    
   0.0000000    
   0.0000000    
   0.0000000    
   0.0000000    
   0.0000000    
   0.0000000    
   0.0000000    
   0.0000000    
   0.0000000    
   0.0000000    
   0.0000000    
   0.0000000    
   0.0000000    
   0.0000000    
   0.0000000    
   0.0000000    
   0.0000000    
   0.0000000    
   0.0000000    
   0.0000000    
   0.0000000    
   0.0000000    
   6829.1675    
   481.22876    
   12964.531    
   7567.7637    
   8066.8169    
   11584.634    
   11995.084    
   9984.8828    
   9255.1621    
   6328.3750    
   2214.4346    
   3952.5425    
   6561.1421    
   11593.351    
   5799.2905    
   12653.707    
   3520.8228    
   168.91119    
   4237.4302    
   6481.4678    
   609.61346    
   5968.8110    
   5397.9741    
   7972.6489    
   80.233643    
   2775.8057    
   3343.8030    
   10239.247    
   5128.7188    
   68.536552    
   0.0000000    
   0.0000000    
   0.0000000    
   0.0000000    
   0.0000000    
   0.0000000    
   0.0000000    
   0.0000000    
   0.0000000    
   0.0000000    
   0.0000000    
   0.0000000    
   0.0000000    
   0.0000000    
   0.0000000    
   0.0000000    
   0.0000000    
   0.0000000    
   0.0000000    
   0.0000000    
   0.0000000    
   0.0000000    
   0.0000000    
   0.0000000    
   0.0000000    
   0.0000000    
   0.0000000    
   0.0000000    
   0.0000000    
   0.0000000    
   0.0000000    
   0.0000000    
   0.0000000    
   0.0000000    
   0.0000000    
   0.0000000    
   0.0000000    
   0.0000000    
   0.0000000    
   0.0000000    
   0.0000000    
   0.0000000    
   0.0000000    
   0.0000000    
   0.0000000    
   0.0000000    
   0.0000000    
   0.0000000    
   0.0000000    
   0.0000000    
   3832.5508    
   11104.546    
   3517.7495    
   51086.309    
   31.342579    
   33047.781    
   6136.7500    
   24160.777    
   325.96921    
   13049.395    
   114.15757    
   4952.7393    
   4916.6523    
   25743.754    
   6586.4316    
   6172.7310    
   1498.2030    
   20552.582    
   1883.7631    
   23.389700    
   8639.5801    
   19880.498    
   291.55511    
   471.62534    
   7213.7998    
   33808.227    
   3051.8918    
   40891.113    
   643.82666    
   1820.0205    
   11299.741    
   4877.2461    
   5912.8501    
   28237.961    
   209.16330    
   4937.7817    
   10607.025    
   42129.324    
   1023.6921    
   24878.549    
   1972.9293    
   2484.3958    
   2507.7273    
   64670.543    
   3486.7822    
   2292.8560    
   8869.6309    
   39216.066    
   4783.2598    
   42603.520    
   535.57526    
   21095.756    
   806.50525    
   28141.980    
   142.70319    
   19977.246    
   330.41757    
   1651.9027    
   4.4439139    
   6910.3574    
   258.31500    
   14996.799    
   19.413332    
   12356.514    
   1.6372246    
   1311.4630    
   0.0000000    
   447.03253    
   0.0000000    
   420.09970    
   0.0000000    
   198.63174    
   0.0000000    
   15.670914    
   0.0000000    
   6.5489473    
   0.0000000    
   7.9523101    
   0.0000000    
   0.0000000    
   0.0000000    
   17.074316    
   0.0000000    
   607.50458    
   0.0000000    
   2.8066757    
   0.0000000    
   789.15527    
   1.4033347    
   1053.4902    
   0.0000000    
   43.506180    
   0.0000000    
   243.10060    
   0.0000000    
   308.64465    
   0.0000000    
   1403.2930    
  0.23388872    
   95.206528    
   0.0000000    
   2169.4626    
   0.0000000    
   253.86766    
   0.0000000    
  -2.2219343    
   0.0000000    
   43.272259    
   0.0000000    
   112.05185    
   0.0000000    
   455.69836    
   0.0000000    
   1402.1185    
   0.0000000    
   488.72427    
   0.0000000    
   67.834740    
   0.0000000    
   137.08746    
   0.0000000    
   18.243822    
   0.0000000    
   310.98578    
   0.0000000    
  -4.2099681    
   0.0000000    
   440.24057    
   0.0000000    
   308.64465    
   0.0000000    
   56.605946    
   0.0000000    
   0.0000000    
   0.0000000    
   0.0000000    
   0.0000000    
   0.0000000    
   0.0000000    
   0.0000000    
   0.0000000    
   0.0000000    
   0.0000000    
   0.0000000    
   0.0000000    
   0.0000000    
   0.0000000    
   0.0000000    
   0.0000000    
   0.0000000    
   0.0000000    
   0.0000000    
   0.0000000    
   0.0000000    
   0.0000000    
   0.0000000    
   0.0000000    
   0.0000000    
   0.0000000    
   0.0000000    
   0.0000000    
   0.0000000    
   0.0000000    
   0.0000000    
   0.0000000    
   0.0000000    
   0.0000000    
   0.0000000    
   0.0000000    
   0.0000000    
   0.0000000    
   0.0000000    
   0.0000000    
   0.0000000    
   0.0000000    
   0.0000000    
   0.0000000    
   0.0000000    
   0.0000000    
   0.0000000    
   0.0000000    
   0.0000000    
   0.0000000    
   0.0000000    
   0.0000000    
   0.0000000    
   0.0000000    
   0.0000000    
   0.0000000    
   0.0000000    
   0.0000000    
   0.0000000    
   0.0000000    
   0.0000000    
   0.0000000    
   0.0000000    
   0.0000000    
   0.0000000    
   0.0000000    
   0.0000000    
   0.0000000    
   0.0000000    
   0.0000000    
   0.0000000    
   0.0000000    
   0.0000000    
   0.0000000    
   0.0000000    
   0.0000000    
   0.0000000    
   0.0000000    
   0.0000000    
   0.0000000    
   0.0000000    
   0.0000000    
   0.0000000    
   0.0000000    
   0.0000000    
   0.0000000    
   0.0000000    
   0.0000000    
   0.0000000    
   0.0000000    
   0.0000000    
   0.0000000    
   0.0000000    
   0.0000000    
   0.0000000    
   0.0000000    
   0.0000000    
   0.0000000    
   0.0000000    
   0.0000000    
   0.0000000    
   0.0000000    
   0.0000000    
   0.0000000    
   0.0000000    
   0.0000000    
   0.0000000    
   0.0000000    
   0.0000000    
   0.0000000    
   0.0000000    
   0.0000000    
   0.0000000    
   0.0000000    
   0.0000000    
   0.0000000    
   0.0000000    
   0.0000000    
   0.0000000    
   0.0000000    
   0.0000000    
   0.0000000    
   0.0000000    
   0.0000000    
   0.0000000    
   0.0000000    
   0.0000000    
   0.0000000    
   0.0000000    
   0.0000000    
   0.0000000    
   0.0000000    
   0.0000000    
   0.0000000    
   0.0000000    
   0.0000000    
   0.0000000    
   0.0000000    
   0.0000000    
   0.0000000    
   0.0000000    
   0.0000000    
   0.0000000    
   0.0000000    
   0.0000000    
   0.0000000    
   0.0000000    
   0.0000000    
   0.0000000    
   0.0000000    
   0.0000000    
   0.0000000    
   0.0000000    
   0.0000000    
   0.0000000    
   0.0000000    
   0.0000000    
   0.0000000    
   0.0000000    
   0.0000000    
   0.0000000    
   0.0000000    
   0.0000000    
   0.0000000    
   0.0000000    
   0.0000000    
   0.0000000    
   0.0000000    
   0.0000000    
   0.0000000    
   0.0000000    
   0.0000000    
   0.0000000    
   0.0000000    
   0.0000000    
   0.0000000    
   0.0000000    
   0.0000000    
   0.0000000    
   0.0000000    
   0.0000000    
   0.0000000    
   0.0000000    
   0.0000000    
   0.0000000    
   0.0000000    
   0.0000000    
   0.0000000    
   0.0000000    
   0.0000000    
   0.0000000    
   0.0000000    
   0.0000000    
   0.0000000    
   0.0000000    
   0.0000000    
   0.0000000    
   0.0000000    
   0.0000000    
   0.0000000    
   0.0000000    
   0.0000000    
   0.0000000    
   0.0000000    
   0.0000000    
   0.0000000    
   0.0000000    
   0.0000000    
   0.0000000    
   0.0000000    
   0.0000000    
   0.0000000    
   0.0000000    
   0.0000000    
   0.0000000    
   0.0000000    
   0.0000000    
   0.0000000    
   0.0000000    
   0.0000000    
   0.0000000    
   0.0000000    
   0.0000000    
   0.0000000    
   0.0000000    
   0.0000000    
   0.0000000    
   0.0000000    
   0.0000000    
   0.0000000    
   0.0000000    
   0.0000000    
   0.0000000    
   0.0000000    
   0.0000000    
   0.0000000    
   0.0000000    
   0.0000000    
   0.0000000    
   0.0000000    
   0.0000000    
   0.0000000    
   0.0000000    
   0.0000000    
   0.0000000    
   0.0000000    
   0.0000000    
   0.0000000    
   0.0000000    
   0.0000000    
   0.0000000    
   0.0000000    
   0.0000000    
   0.0000000    
   0.0000000    
   0.0000000    
   0.0000000    
   0.0000000    
   0.0000000    
   0.0000000    
   0.0000000    
   0.0000000    
   0.0000000    
   0.0000000    
   0.0000000    
   0.0000000    
   0.0000000    
   0.0000000    
   0.0000000    
   0.0000000    
   0.0000000    
   0.0000000    
   0.0000000    
   0.0000000    
   0.0000000    
   0.0000000    
   0.0000000    
   0.0000000    
   0.0000000    
   0.0000000    
   0.0000000    
   0.0000000    
   0.0000000    
   0.0000000    
   0.0000000    
   0.0000000    
   0.0000000    
   0.0000000    
   0.0000000    
   0.0000000    
   0.0000000    
   0.0000000    
   0.0000000    
   0.0000000    
   0.0000000    
   0.0000000    
   0.0000000    
   0.0000000    
   0.0000000    
   0.0000000    
   0.0000000    
   0.0000000    
   0.0000000    
   0.0000000    
   0.0000000    
   0.0000000    
   0.0000000    
   0.0000000    
   0.0000000    
   0.0000000    
   0.0000000    
   0.0000000    
   0.0000000    
   0.0000000    
   0.0000000    
   0.0000000    
   0.0000000    
   0.0000000    
   0.0000000    
   0.0000000    
   0.0000000    
   0.0000000    
   0.0000000    
   0.0000000    
   0.0000000    
   0.0000000    
   0.0000000    
   0.0000000    
   0.0000000    
   0.0000000    
   0.0000000    
   0.0000000    
   0.0000000    
   0.0000000    
   0.0000000    
   0.0000000    
   0.0000000    
   0.0000000    
   0.0000000    
   0.0000000    
   0.0000000    
   0.0000000    
   0.0000000    
   0.0000000    
   0.0000000    
   0.0000000    
   0.0000000    
   0.0000000    
   0.0000000    
   0.0000000    
   0.0000000    
   0.0000000    
   0.0000000    
   0.0000000    
   0.0000000    
   0.0000000    
   0.0000000    
   0.0000000    
   0.0000000    
   0.0000000    
   0.0000000    
   0.0000000    
   0.0000000    
   0.0000000    
   0.0000000    
   0.0000000    
   0.0000000    
   0.0000000    
   0.0000000    
   0.0000000    
   0.0000000    
   0.0000000    
   0.0000000    
   0.0000000    
   0.0000000    
   0.0000000    
   0.0000000    
   0.0000000    
   0.0000000    
   0.0000000    
   0.0000000    
   0.0000000    
   0.0000000    
   0.0000000    
   0.0000000    
   0.0000000    
   0.0000000    
   0.0000000    
   0.0000000    
   0.0000000    
   0.0000000    
   0.0000000    
   0.0000000    
   0.0000000    
   0.0000000    
   0.0000000    
   0.0000000    
   0.0000000    
   0.0000000    
   0.0000000    
   0.0000000    
   0.0000000    
   0.0000000    
   0.0000000    
   0.0000000    
   0.0000000    
   0.0000000    
   0.0000000    
   0.0000000    
   0.0000000    
   0.0000000    
   0.0000000    
   0.0000000    
   0.0000000    
   0.0000000    
   0.0000000    
   0.0000000    
   0.0000000    
   0.0000000    
   0.0000000    
   0.0000000    
   0.0000000    
   0.0000000    
   0.0000000    
   0.0000000    
   0.0000000    
   0.0000000    
   0.0000000    
   0.0000000    
   0.0000000    
   0.0000000    
   0.0000000    
   0.0000000    
   0.0000000    
   0.0000000    
   0.0000000    
   0.0000000    
   0.0000000    
   0.0000000    
   0.0000000    
   0.0000000    
   0.0000000    
   0.0000000    
   0.0000000    
   0.0000000    
   0.0000000    
   0.0000000    
   0.0000000    
   0.0000000    
   0.0000000    
   0.0000000    
   0.0000000    
   0.0000000    
   0.0000000    
   0.0000000    
   0.0000000    
   0.0000000    
   0.0000000    
   0.0000000    
   0.0000000    
   0.0000000    
   0.0000000    
   0.0000000    
   0.0000000    
   0.0000000    
   0.0000000    
   0.0000000    
   0.0000000    
   0.0000000    
   0.0000000    
   0.0000000    
   0.0000000    
   0.0000000    
   0.0000000    
   0.0000000    
   0.0000000    
   0.0000000    
   0.0000000    
   0.0000000    
   0.0000000    
   0.0000000    
   0.0000000    
   0.0000000    
   0.0000000    
   0.0000000    
   0.0000000    
   0.0000000    
   0.0000000    
   0.0000000    
   0.0000000    
   0.0000000    
   0.0000000    
   0.0000000    
   0.0000000    
   0.0000000    
   0.0000000    
   0.0000000    
   0.0000000    
   0.0000000    
   0.0000000    
   0.0000000    
   0.0000000    
   0.0000000    
   0.0000000    
   0.0000000    
   0.0000000    
   0.0000000    
   0.0000000    
   0.0000000    
   0.0000000    
   0.0000000    
   0.0000000    
   0.0000000    
   0.0000000    
   0.0000000    
   0.0000000    
   0.0000000    
   0.0000000    
   0.0000000    
   0.0000000    
   0.0000000    
   0.0000000    
   0.0000000    
   0.0000000    
   0.0000000    
   0.0000000    
   0.0000000    
   0.0000000    
   0.0000000    
   0.0000000    
   0.0000000    
   0.0000000    
   0.0000000    
   0.0000000    
   0.0000000    
   0.0000000    
   0.0000000    
   0.0000000    
   0.0000000    
   0.0000000    
   0.0000000    
   0.0000000    
   0.0000000    
   0.0000000    
   0.0000000    
   0.0000000    
   0.0000000    
   0.0000000    
   0.0000000    
   0.0000000    
   0.0000000    
   0.0000000    
   0.0000000    
   0.0000000    
   0.0000000    
   0.0000000    
   0.0000000    
   0.0000000    
   0.0000000    
   0.0000000    
   0.0000000    
   0.0000000    
   0.0000000    
   0.0000000    
   0.0000000    
   0.0000000    
   0.0000000    
   0.0000000    
   0.0000000    
   0.0000000    
   0.0000000    
   0.0000000    
   0.0000000    
   0.0000000    
   0.0000000    
   0.0000000    
   0.0000000    
   0.0000000    
   0.0000000    
   0.0000000    
   0.0000000    
   0.0000000    
   0.0000000    
   0.0000000    
   0.0000000    
   0.0000000    
   0.0000000    
   0.0000000    
   0.0000000    
   0.0000000    
   0.0000000    
   0.0000000    
   0.0000000    
   0.0000000    
   0.0000000    
   0.0000000    
   0.0000000    
   0.0000000    
   0.0000000    
   0.0000000    
   0.0000000    
   0.0000000    
   0.0000000    
   0.0000000    
   0.0000000    
   0.0000000    
   0.0000000    
   0.0000000    
   0.0000000    
   0.0000000    
   0.0000000    
   0.0000000    
   0.0000000    
   0.0000000    
   0.0000000    
   0.0000000    
   0.0000000    
   0.0000000    
   0.0000000    
   0.0000000    
   0.0000000    
   0.0000000    
   0.0000000    
   0.0000000    
   0.0000000    
   0.0000000    
   0.0000000    
   0.0000000    
   0.0000000    
   0.0000000    
   0.0000000    
   0.0000000    
   0.0000000    
   0.0000000    
   0.0000000    
   0.0000000    
   0.0000000    
   0.0000000    
   0.0000000    
   0.0000000    
   0.0000000    
   0.0000000    
   0.0000000    
   0.0000000    
   0.0000000    
   0.0000000    
   0.0000000    
   0.0000000    
   0.0000000    
   0.0000000    
   0.0000000    
   0.0000000    
   0.0000000    
   0.0000000    
   0.0000000    
   0.0000000    
   0.0000000    
   0.0000000    
   0.0000000    
   0.0000000    
   0.0000000    
   0.0000000    
   0.0000000    
   0.0000000    
   0.0000000    
   0.0000000    
   0.0000000    
   0.0000000    
   0.0000000    
   0.0000000    
   0.0000000    
   0.0000000    
   0.0000000    
   0.0000000    
   0.0000000    
   0.0000000    
   0.0000000    
   0.0000000    
   0.0000000    
   0.0000000    
   0.0000000    
   0.0000000    
   0.0000000    
   0.0000000    
   0.0000000    
   0.0000000    
   0.0000000    
   0.0000000    
   0.0000000    
   0.0000000    
   0.0000000    
   0.0000000    
   0.0000000    
   0.0000000    
   0.0000000    
   0.0000000    
   0.0000000    
   0.0000000    
   0.0000000    
   0.0000000    
   0.0000000    
   0.0000000    
   0.0000000    
   0.0000000    
   0.0000000    
   0.0000000    
   0.0000000    
   0.0000000    
   0.0000000    
   0.0000000    
   0.0000000    
   0.0000000    
   0.0000000    
   0.0000000    
   0.0000000    
   0.0000000    
   0.0000000    
   0.0000000    
   0.0000000    
   0.0000000    
   0.0000000    
   0.0000000    
   0.0000000    
   0.0000000    
   0.0000000    
   0.0000000    
   0.0000000    
   0.0000000    
   0.0000000    
   0.0000000    
   0.0000000    
   0.0000000    
   0.0000000    
   0.0000000    
   0.0000000    
   0.0000000    
   0.0000000    
   0.0000000    
   0.0000000    
   0.0000000    
   0.0000000    
   0.0000000    
   0.0000000    
   0.0000000    
   0.0000000    
   0.0000000    
   0.0000000    
   5625.3354    
   10066.837    
   10480.285    
   12040.666    
   12829.620    
   12090.134    
   14250.677    
   11738.191    
   13299.000    
   11815.481    
   11460.433    
   12014.964    
   12072.674    
   11976.416    
   11420.737    
   11920.904    
   10183.536    
   11334.584    
   9685.9189    
   10786.474    
   9129.1670    
   10668.843    
   8644.1416    
   10005.852    
   8177.0728    
   9664.7295    
   7425.8940    
   9325.1523    
   7810.4927    
   8890.5313    
   7379.7339    
   8618.9365    
   7191.3306    
   8355.4756    
   7251.5698    
   8065.1396    
   7056.0708    
   7785.5894    
   6847.7920    
   7330.7100    
   6434.7217    
   6836.3306    
   6102.9175    
   6527.5049    
   5713.6104    
   6253.5234    
   5343.2979    
   5856.6606    
   4878.9077    
   5364.2163    
   4402.1279    
   4863.7163    
   3995.8638    
   4452.6201    
   3676.8867    
   4087.2595    
   3494.1101    
   3752.5803    
   3297.0232    
   3301.9844    
   2943.0815    
   2796.5630    
   2589.5188    
   2355.7480    
   2573.2532    
   2311.9343    
   2372.4741    
   2006.3435    
   2049.1750    
   1742.6521    
   1978.8119    
   1473.5332    
   1698.4498    
   998.82324    
   1961.6351    
   467.17508    
   478.88641    
   539.55792    
  -468.96091    
   1142.4316    
   7773.8569    
   10797.345    
   12292.690    
   11829.778    
   13046.720    
   14095.255    
   12597.843    
   13253.736    
   12399.960    
   13088.551    
   11772.836    
   12889.412    
   11669.881    
   12143.248    
   10824.404    
   11445.184    
   10420.190    
   11005.177    
   9931.8643    
   10093.356    
   9478.4131    
   9547.7285    
   9111.8584    
   9385.0527    
   8973.6621    
   9130.3691    
   8500.8574    
   8631.8984    
   8045.2495    
   8370.5869    
   7844.0195    
   8188.3398    
   7808.5771    
   8016.2554    
   7677.8560    
   7648.1753    
   7470.6255    
   7450.5317    
   7363.4712    
   7303.4512    
   7209.7358    
   7041.7358    
   6852.3286    
   6784.0439    
   6600.7476    
   6491.7241    
   6417.7900    
   6015.0156    
   5922.8511    
   5284.1143    
   5243.2388    
   4614.1040    
   4749.5640    
   4074.4719    
   4373.9224    
   3576.6189    
   3936.9199    
   3073.1389    
   3505.6934    
   2594.4692    
   3111.6230    
   2204.7805    
   2708.8245    
   2196.7749    
   2660.4841    
   2150.3926    
   2595.8838    
   2029.8766    
   2374.1230    
   2190.6528    
   2347.7385    
   2077.1833    
   2299.2153    
   1811.3185    
   1648.1416    
   1360.7803    
   1361.7197    
   1039.6466    
   870.75507    
   1004.2191    
   9259.2500    
   10958.041    
   11939.084    
   12029.027    
   13060.095    
   12580.356    
   13141.090    
   12412.340    
   12848.091    
   12313.559    
   12171.870    
   11553.640    
   11110.349    
   10750.238    
   10148.329    
   10356.005    
   9621.8721    
   10073.347    
   9279.6934    
   9580.2246    
   8716.6465    
   8940.5029    
   8163.1689    
   8400.5703    
   7909.4063    
   8038.0605    
   7706.8208    
   7611.3179    
   7410.5864    
   7293.4092    
   7268.0659    
   7208.3018    
   7237.4653    
   7122.2603    
   6939.7339    
   6823.1987    
   6592.3965    
   6667.3242    
   6612.2007    
   6718.6377    
   6662.7900    
   6492.2012    
   6315.5015    
   6006.6792    
   5846.1855    
   5733.1245    
   5505.4521    
   5549.9277    
   5094.0381    
   5130.8569    
   4601.0591    
   4692.6211    
   4232.2183    
   4398.0986    
   3802.5005    
   4071.3936    
   3295.6057    
   3757.5483    
   3049.0591    
   3610.6687    
   3060.3906    
   3482.2910    
   2986.0349    
   3164.5164    
   2773.9187    
   3034.1873    
   2687.1294    
   2828.4094    
   2482.0391    
   2398.3894    
   2151.0989    
   2140.2695    
   1934.3425    
   1873.8833    
   1574.8088    
   1482.9310    
   1118.4924    
   1080.2405    
   891.15814    
   523.86188    
   7807.3799    
   10855.090    
   12321.082    
   12861.216    
   12570.642    
   13096.091    
   11851.346    
   12478.128    
   11604.490    
   11991.932    
   11091.005    
   11199.348    
   10294.002    
   10347.318    
   9643.5410    
   9586.0020    
   9201.2959    
   8959.9658    
   8915.9971    
   8506.3760    
   8532.5332    
   8105.1626    
   8207.0400    
   7951.8062    
   8063.7017    
   7923.5391    
   7829.8901    
   7708.9756    
   7473.9746    
   7510.3389    
   7318.9932    
   7555.0815    
   7374.7114    
   7492.3955    
   7258.9810    
   7123.9331    
   6936.3901    
   6874.2974    
   6704.5557    
   6896.0283    
   6429.2368    
   6743.7007    
   5919.9937    
   6321.4614    
   5496.8906    
   5912.3740    
   5225.4165    
   5401.0649    
   4669.8472    
   4670.7959    
   3914.6707    
   4079.6816    
   3491.7463    
   3695.8083    
   3278.5967    
   3115.1648    
   2849.4060    
   2581.2681    
   2515.2690    
   2454.2319    
   2424.5422    
   2437.2661    
   2278.0181    
   2319.2363    
   2215.1411    
   2317.1162    
   2438.4443    
   2387.0806    
   2543.0813    
   2256.3513    
   2419.3586    
   2106.3708    
   2279.6667    
   1998.8132    
   1998.1073    
   1635.4482    
   1375.8118    
   1117.0844    
   977.94421    
   747.89417    
   6072.1851    
   11127.276    
   10585.295    
   12100.319    
   11345.715    
   11833.655    
   11172.501    
   11248.210    
   10710.384    
   10881.671    
   10493.561    
   10197.764    
   9767.3193    
   9476.2471    
   9096.4736    
   8962.3682    
   8680.8721    
   8642.2207    
   8471.1045    
   8452.1504    
   8198.8887    
   8143.9922    
   7922.8203    
   7929.0483    
   7888.8066    
   7858.1494    
   7958.9932    
   7680.7285    
   7896.4712    
   7412.9780    
   7710.8906    
   7278.5854    
   7482.1084    
   7196.8281    
   7086.4160    
   6930.4189    
   6667.0854    
   6644.6533    
   6513.4307    
   6372.0063    
   6373.6758    
   5810.0020    
   5891.6592    
   5116.1289    
   5263.9136    
   4733.4292    
   4836.6577    
   4479.6470    
   4481.7808    
   3949.4653    